    2    2    1    2
  0.2827355E+02  0.4308325E-09  0.4308325E-09  0.4308325E-09  0.5000000E-15
   1.0000000000000000E-004
  CAR 
 unknown system                          
     18     47     16
 
  0.1262379E-14  0.1262379E-14  0.1262379E-14  0.1000000E-02
      1        -10.094155      -10.094239   1.000000   1.000000
      2        -10.094153      -10.094237   1.000000   1.000000
      3        -10.094152      -10.094236   1.000000   1.000000
      4         -9.978010       -9.978096   1.000000   1.000000
      5         -9.978008       -9.978094   1.000000   1.000000
      6         -7.401082       -7.401085   1.000000   1.000000
      7          4.023913        4.023888   1.000000   1.000000
      8          4.292562        4.292559   0.666904   0.666939
      9          4.292563        4.292560   0.666896   0.666930
     10          4.292563        4.292560   0.666893   0.666928
     11          8.191369        8.191378   0.000000   0.000000
     12          8.191369        8.191379   0.000000   0.000000
     13          8.191371        8.191380   0.000000   0.000000
     14         11.743657       11.743561   0.000000   0.000000
     15         13.904046       13.904074   0.000000   0.000000
     16         13.904049       13.904076   0.000000   0.000000
 
  0.1000000E+00  0.1262138E-14  0.1262379E-14  0.8000000E-02
      1        -10.105616      -10.105700   1.000000   1.000000
      2        -10.090641      -10.090725   1.000000   1.000000
      3        -10.090639      -10.090724   1.000000   1.000000
      4         -9.978120       -9.978205   1.000000   1.000000
      5         -9.978118       -9.978203   1.000000   1.000000
      6         -7.301518       -7.301521   1.000000   1.000000
      7          2.774474        2.774461   1.000000   1.000000
      8          4.169252        4.169249   0.999956   0.999956
      9          4.169253        4.169250   0.999956   0.999956
     10          5.193305        5.193291   0.000000   0.000000
     11          8.248734        8.248729   0.000000   0.000000
     12          8.374734        8.374743   0.000000   0.000000
     13          8.374735        8.374744   0.000000   0.000000
     14         12.323637       12.323552   0.000000   0.000000
     15         13.221805       13.221818   0.000000   0.000000
     16         13.221807       13.221819   0.000000   0.000000
 
  0.2000000E+00  0.1257760E-14  0.1262379E-14  0.8000000E-02
      1        -10.134408      -10.134490   1.000000   1.000000
      2        -10.082043      -10.082127   1.000000   1.000000
      3        -10.082042      -10.082126   1.000000   1.000000
      4         -9.977727       -9.977812   1.000000   1.000000
      5         -9.977725       -9.977810   1.000000   1.000000
      6         -7.018806       -7.018811   1.000000   1.000000
      7          1.335914        1.335904   1.000000   1.000000
      8          3.891059        3.891058   1.000000   1.000000
      9          3.891060        3.891059   1.000000   1.000000
     10          5.533858        5.533842   0.000000   0.000000
     11          8.744989        8.744997   0.000000   0.000000
     12          8.744990        8.744998   0.000000   0.000000
     13          8.856098        8.856077   0.000000   0.000000
     14         12.773230       12.773238   0.000000   0.000000
     15         12.773230       12.773238   0.000000   0.000000
     16         12.807543       12.807481   0.000000   0.000000
 
  0.3000000E+00  0.1280154E-14  0.1262379E-14  0.8000000E-02
      1        -10.167955      -10.168036   1.000000   1.000000
      2        -10.072911      -10.072996   1.000000   1.000000
      3        -10.072910      -10.072995   1.000000   1.000000
      4         -9.975562       -9.975647   1.000000   1.000000
      5         -9.975560       -9.975645   1.000000   1.000000
      6         -6.607590       -6.607595   1.000000   1.000000
      7          0.022956        0.022948   1.000000   1.000000
      8          3.606581        3.606581   1.000000   1.000000
      9          3.606583        3.606582   1.000000   1.000000
     10          5.430538        5.430519   0.000000   0.000000
     11          8.967682        8.967689   0.000000   0.000000
     12          8.967682        8.967690   0.000000   0.000000
     13          9.985847        9.985819   0.000000   0.000000
     14         12.458565       12.458506   0.000000   0.000000
     15         13.053952       13.053958   0.000000   0.000000
     16         13.053953       13.053958   0.000000   0.000000
 
  0.4000000E+00  0.1255795E-14  0.1262379E-14  0.8000000E-02
      1        -10.193698      -10.193779   1.000000   1.000000
      2        -10.067015      -10.067100   1.000000   1.000000
      3        -10.067014      -10.067099   1.000000   1.000000
      4         -9.972252       -9.972337   1.000000   1.000000
      5         -9.972250       -9.972336   1.000000   1.000000
      6         -6.192273       -6.192279   1.000000   1.000000
      7         -0.959960       -0.959967   1.000000   1.000000
      8          3.408195        3.408196   1.000000   1.000000
      9          3.408197        3.408198   1.000000   1.000000
     10          5.282463        5.282441   0.000000   0.000000
     11          8.978784        8.978791   0.000000   0.000000
     12          8.978784        8.978791   0.000000   0.000000
     13         10.920864       10.920830   0.000000   0.000000
     14         12.620579       12.620519   0.000000   0.000000
     15         14.020387       14.020390   0.000000   0.000000
     16         14.020389       14.020392   0.000000   0.000000
 
  0.5000000E+00  0.1269723E-14  0.1262379E-14  0.4000000E-02
      1        -10.203268      -10.203348   1.000000   1.000000
      2        -10.065157      -10.065242   1.000000   1.000000
      3        -10.065156      -10.065241   1.000000   1.000000
      4         -9.970579       -9.970664   1.000000   1.000000
      5         -9.970577       -9.970663   1.000000   1.000000
      6         -6.001151       -6.001158   1.000000   1.000000
      7         -1.344351       -1.344358   1.000000   1.000000
      8          3.338100        3.338100   1.000000   1.000000
      9          3.338101        3.338102   1.000000   1.000000
     10          5.224591        5.224569   0.000000   0.000000
     11          8.954645        8.954651   0.000000   0.000000
     12          8.954645        8.954651   0.000000   0.000000
     13         11.117389       11.117349   0.000000   0.000000
     14         13.224602       13.224541   0.000000   0.000000
     15         14.957601       14.957597   0.000000   0.000000
     16         14.957603       14.957599   0.000000   0.000000
 
  0.1000000E+00  0.1000000E+00  0.1262379E-14  0.6000000E-02
      1        -10.113173      -10.113256   1.000000   1.000000
      2        -10.087310      -10.087394   1.000000   1.000000
      3        -10.087309      -10.087394   1.000000   1.000000
      4         -9.980627       -9.980713   1.000000   1.000000
      5         -9.976019       -9.976105   1.000000   1.000000
      6         -7.268494       -7.268497   1.000000   1.000000
      7          2.689409        2.689395   1.000000   1.000000
      8          3.944335        3.944333   1.000000   1.000000
      9          3.944335        3.944333   1.000000   1.000000
     10          5.619049        5.619034   0.000000   0.000000
     11          7.723084        7.723081   0.000000   0.000000
     12          8.686433        8.686440   0.000000   0.000000
     13          8.686433        8.686440   0.000000   0.000000
     14         12.270721       12.270696   0.000000   0.000000
     15         12.615735       12.615675   0.000000   0.000000
     16         14.011495       14.011522   0.000000   0.000000
 
  0.2000000E+00  0.1000000E+00  0.1262379E-14  0.2400000E-01
      1        -10.136812      -10.136894   1.000000   1.000000
      2        -10.080148      -10.080233   1.000000   1.000000
      3        -10.078545      -10.078630   1.000000   1.000000
      4         -9.982855       -9.982940   1.000000   1.000000
      5         -9.974104       -9.974189   1.000000   1.000000
      6         -7.046847       -7.046851   1.000000   1.000000
      7          1.628822        1.628810   1.000000   1.000000
      8          3.618620        3.618620   1.000000   1.000000
      9          3.659799        3.659797   1.000000   1.000000
     10          6.137435        6.137421   0.000000   0.000000
     11          7.668365        7.668357   0.000000   0.000000
     12          9.167984        9.167990   0.000000   0.000000
     13          9.182851        9.182850   0.000000   0.000000
     14         11.781290       11.781281   0.000000   0.000000
     15         13.420529       13.420464   0.000000   0.000000
     16         13.665062       13.665077   0.000000   0.000000
 
  0.3000000E+00  0.1000000E+00  0.1262379E-14  0.2400000E-01
      1        -10.166624      -10.166705   1.000000   1.000000
      2        -10.072388      -10.072473   1.000000   1.000000
      3        -10.068903      -10.068988   1.000000   1.000000
      4         -9.982885       -9.982971   1.000000   1.000000
      5         -9.971812       -9.971898   1.000000   1.000000
      6         -6.675879       -6.675884   1.000000   1.000000
      7          0.383412        0.383403   1.000000   1.000000
      8          3.293389        3.293386   1.000000   1.000000
      9          3.337510        3.337511   1.000000   1.000000
     10          6.160858        6.160842   0.000000   0.000000
     11          8.203529        8.203526   0.000000   0.000000
     12          9.470141        9.470146   0.000000   0.000000
     13          9.632290        9.632273   0.000000   0.000000
     14         12.082490       12.082477   0.000000   0.000000
     15         13.417119       13.417079   0.000000   0.000000
     16         13.722145       13.722156   0.000000   0.000000
 
  0.4000000E+00  0.1000000E+00  0.1262379E-14  0.2400000E-01
      1        -10.192548      -10.192629   1.000000   1.000000
      2        -10.066279      -10.066364   1.000000   1.000000
      3        -10.062443      -10.062528   1.000000   1.000000
      4         -9.979617       -9.979703   1.000000   1.000000
      5         -9.969654       -9.969740   1.000000   1.000000
      6         -6.250426       -6.250432   1.000000   1.000000
      7         -0.674585       -0.674593   1.000000   1.000000
      8          2.945502        2.945499   1.000000   1.000000
      9          3.179391        3.179392   1.000000   1.000000
     10          6.014639        6.014621   0.000000   0.000000
     11          8.556110        8.556110   0.000000   0.000000
     12          9.451886        9.451891   0.000000   0.000000
     13         10.388316       10.388290   0.000000   0.000000
     14         12.696404       12.696367   0.000000   0.000000
     15         13.634373       13.634354   0.000000   0.000000
     16         14.488786       14.488791   0.000000   0.000000
 
  0.5000000E+00  0.1000000E+00  0.1262379E-14  0.2400000E-01
      1        -10.205952      -10.206032   1.000000   1.000000
      2        -10.063315      -10.063400   1.000000   1.000000
      3        -10.060355      -10.060440   1.000000   1.000000
      4         -9.974963       -9.975049   1.000000   1.000000
      5         -9.969860       -9.969946   1.000000   1.000000
      6         -5.963312       -5.963319   1.000000   1.000000
      7         -1.262050       -1.262057   1.000000   1.000000
      8          2.710486        2.710484   1.000000   1.000000
      9          3.174160        3.174161   1.000000   1.000000
     10          5.918195        5.918176   0.000000   0.000000
     11          8.646668        8.646665   0.000000   0.000000
     12          9.300530        9.300536   0.000000   0.000000
     13         11.214063       11.214036   0.000000   0.000000
     14         13.064489       13.064441   0.000000   0.000000
     15         14.391711       14.391689   0.000000   0.000000
     16         14.993344       14.993341   0.000000   0.000000
 
 -0.4000000E+00  0.1000000E+00  0.1262379E-14  0.2400000E-01
      1        -10.202460      -10.202540   1.000000   1.000000
      2        -10.063278      -10.063363   1.000000   1.000000
      3        -10.062243      -10.062327   1.000000   1.000000
      4         -9.973510       -9.973595   1.000000   1.000000
      5         -9.972269       -9.972355   1.000000   1.000000
      6         -6.028723       -6.028730   1.000000   1.000000
      7         -1.134181       -1.134188   1.000000   1.000000
      8          2.633262        2.633260   1.000000   1.000000
      9          3.319675        3.319676   1.000000   1.000000
     10          5.923529        5.923511   0.000000   0.000000
     11          8.776113        8.776109   0.000000   0.000000
     12          9.168003        9.168010   0.000000   0.000000
     13         11.114986       11.114958   0.000000   0.000000
     14         13.100779       13.100725   0.000000   0.000000
     15         13.736535       13.736536   0.000000   0.000000
     16         14.826408       14.826390   0.000000   0.000000
 
 -0.3000000E+00  0.1000000E+00  0.1262379E-14  0.2400000E-01
      1        -10.183012      -10.183093   1.000000   1.000000
      2        -10.068264      -10.068349   1.000000   1.000000
      3        -10.066347      -10.066432   1.000000   1.000000
      4         -9.978329       -9.978415   1.000000   1.000000
      5         -9.972629       -9.972715   1.000000   1.000000
      6         -6.390326       -6.390332   1.000000   1.000000
      7         -0.356010       -0.356018   1.000000   1.000000
      8          2.738041        2.738039   1.000000   1.000000
      9          3.585076        3.585075   1.000000   1.000000
     10          6.016594        6.016577   0.000000   0.000000
     11          8.927485        8.927480   0.000000   0.000000
     12          9.035318        9.035327   0.000000   0.000000
     13         10.140206       10.140179   0.000000   0.000000
     14         12.622234       12.622236   0.000000   0.000000
     15         12.994317       12.994267   0.000000   0.000000
     16         14.458705       14.458705   0.000000   0.000000
 
 -0.2000000E+00  0.1000000E+00  0.1262379E-14  0.2400000E-01
      1        -10.153602      -10.153683   1.000000   1.000000
      2        -10.077685      -10.077769   1.000000   1.000000
      3        -10.073045      -10.073130   1.000000   1.000000
      4         -9.980815       -9.980900   1.000000   1.000000
      5         -9.974457       -9.974542   1.000000   1.000000
      6         -6.813122       -6.813127   1.000000   1.000000
      7          0.779576        0.779566   1.000000   1.000000
      8          3.042821        3.042819   1.000000   1.000000
      9          3.902128        3.902127   1.000000   1.000000
     10          6.082023        6.082010   0.000000   0.000000
     11          8.601738        8.601722   0.000000   0.000000
     12          8.772082        8.772092   0.000000   0.000000
     13          9.465544        9.465534   0.000000   0.000000
     14         12.160353       12.160357   0.000000   0.000000
     15         12.945103       12.945072   0.000000   0.000000
     16         13.846176       13.846151   0.000000   0.000000
 
 -0.1000000E+00  0.1000000E+00  0.1262379E-14  0.1200000E-01
      1        -10.124005      -10.124088   1.000000   1.000000
      2        -10.086729      -10.086813   1.000000   1.000000
      3        -10.082347      -10.082431   1.000000   1.000000
      4         -9.980231       -9.980317   1.000000   1.000000
      5         -9.976227       -9.976312   1.000000   1.000000
      6         -7.140821       -7.140825   1.000000   1.000000
      7          1.957586        1.957574   1.000000   1.000000
      8          3.571236        3.571235   1.000000   1.000000
      9          4.147337        4.147334   0.999997   0.999997
     10          5.780908        5.780895   0.000000   0.000000
     11          8.148688        8.148675   0.000000   0.000000
     12          8.444292        8.444302   0.000000   0.000000
     13          9.054672        9.054674   0.000000   0.000000
     14         12.431742       12.431748   0.000000   0.000000
     15         12.898981       12.898947   0.000000   0.000000
     16         13.167799       13.167751   0.000000   0.000000
 
  0.2000000E+00  0.2000000E+00  0.1262379E-14  0.6000000E-02
      1        -10.158631      -10.158713   1.000000   1.000000
      2        -10.069079      -10.069164   1.000000   1.000000
      3        -10.069078      -10.069163   1.000000   1.000000
      4         -9.988448       -9.988533   1.000000   1.000000
      5         -9.970774       -9.970860   1.000000   1.000000
      6         -6.892455       -6.892460   1.000000   1.000000
      7          1.295767        1.295755   1.000000   1.000000
      8          3.255171        3.255172   1.000000   1.000000
      9          3.255171        3.255172   1.000000   1.000000
     10          6.745784        6.745766   0.000000   0.000000
     11          6.957947        6.957937   0.000000   0.000000
     12          9.814311        9.814313   0.000000   0.000000
     13          9.814311        9.814314   0.000000   0.000000
     14         11.077028       11.077011   0.000000   0.000000
     15         14.257944       14.257872   0.000000   0.000000
     16         14.328221       14.328247   0.000000   0.000000
 
  0.3000000E+00  0.2000000E+00  0.1262379E-14  0.2400000E-01
      1        -10.184343      -10.184424   1.000000   1.000000
      2        -10.060031      -10.060116   1.000000   1.000000
      3        -10.058307      -10.058391   1.000000   1.000000
      4         -9.991900       -9.991985   1.000000   1.000000
      5         -9.967886       -9.967972   1.000000   1.000000
      6         -6.581554       -6.581559   1.000000   1.000000
      7          0.448793        0.448782   1.000000   1.000000
      8          2.830215        2.830215   1.000000   1.000000
      9          2.952265        2.952266   1.000000   1.000000
     10          6.755366        6.755349   0.000000   0.000000
     11          7.205078        7.205065   0.000000   0.000000
     12          9.922615        9.922605   0.000000   0.000000
     13         10.322878       10.322880   0.000000   0.000000
     14         11.642173       11.642160   0.000000   0.000000
     15         14.432374       14.432394   0.000000   0.000000
     16         14.870705       14.870655   0.000000   0.000000
 
  0.4000000E+00  0.2000000E+00  0.1262379E-14  0.2400000E-01
      1        -10.205349      -10.205430   1.000000   1.000000
      2        -10.055697      -10.055781   1.000000   1.000000
      3        -10.050700      -10.050785   1.000000   1.000000
      4         -9.990892       -9.990977   1.000000   1.000000
      5         -9.966163       -9.966249   1.000000   1.000000
      6         -6.185351       -6.185357   1.000000   1.000000
      7         -0.458998       -0.459007   1.000000   1.000000
      8          2.310760        2.310757   1.000000   1.000000
      9          2.790438        2.790440   1.000000   1.000000
     10          6.651044        6.651027   0.000000   0.000000
     11          7.984507        7.984497   0.000000   0.000000
     12          9.761834        9.761814   0.000000   0.000000
     13         10.411764       10.411766   0.000000   0.000000
     14         12.902854       12.902835   0.000000   0.000000
     15         14.772958       14.772923   0.000000   0.000000
     16         15.004906       15.004916   0.000000   0.000000
 
  0.5000000E+00  0.2000000E+00  0.1262379E-14  0.2400000E-01
      1        -10.216424      -10.216504   1.000000   1.000000
      2        -10.055348      -10.055433   1.000000   1.000000
      3        -10.048017      -10.048101   1.000000   1.000000
      4         -9.985778       -9.985863   1.000000   1.000000
      5         -9.967562       -9.967647   1.000000   1.000000
      6         -5.855105       -5.855112   1.000000   1.000000
      7         -1.096261       -1.096269   1.000000   1.000000
      8          1.886546        1.886543   1.000000   1.000000
      9          2.800842        2.800844   1.000000   1.000000
     10          6.593099        6.593083   0.000000   0.000000
     11          8.559913        8.559902   0.000000   0.000000
     12         10.209870       10.209874   0.000000   0.000000
     13         10.314106       10.314084   0.000000   0.000000
     14         13.256993       13.256963   0.000000   0.000000
     15         14.999295       14.999259   0.000000   0.000000
     16         15.116933       15.116931   0.000000   0.000000
 
 -0.4000000E+00  0.2000000E+00  0.1262379E-14  0.2400000E-01
      1        -10.214875      -10.214955   1.000000   1.000000
      2        -10.057042      -10.057127   1.000000   1.000000
      3        -10.050129      -10.050214   1.000000   1.000000
      4         -9.979601       -9.979687   1.000000   1.000000
      5         -9.972677       -9.972763   1.000000   1.000000
      6         -5.803302       -5.803309   1.000000   1.000000
      7         -1.182988       -1.182996   1.000000   1.000000
      8          1.665216        1.665213   1.000000   1.000000
      9          2.980084        2.980085   1.000000   1.000000
     10          6.637929        6.637914   0.000000   0.000000
     11          8.743582        8.743566   0.000000   0.000000
     12          9.937553        9.937559   0.000000   0.000000
     13         11.023902       11.023880   0.000000   0.000000
     14         12.843078       12.843047   0.000000   0.000000
     15         13.697529       13.697530   0.000000   0.000000
     16         14.778660       14.778629   0.000000   0.000000
 
 -0.3000000E+00  0.2000000E+00  0.1262379E-14  0.2400000E-01
      1        -10.201173      -10.201253   1.000000   1.000000
      2        -10.059992      -10.060077   1.000000   1.000000
      3        -10.057046      -10.057131   1.000000   1.000000
      4         -9.978725       -9.978811   1.000000   1.000000
      5         -9.975187       -9.975273   1.000000   1.000000
      6         -6.071737       -6.071744   1.000000   1.000000
      7         -0.690845       -0.690853   1.000000   1.000000
      8          1.721462        1.721460   1.000000   1.000000
      9          3.290570        3.290571   1.000000   1.000000
     10          6.737978        6.737965   0.000000   0.000000
     11          8.947743        8.947725   0.000000   0.000000
     12          9.620286        9.620294   0.000000   0.000000
     13         10.048282       10.048257   0.000000   0.000000
     14         12.529987       12.529989   0.000000   0.000000
     15         13.842390       13.842353   0.000000   0.000000
     16         15.223230       15.223203   0.000000   0.000000
 
 -0.2000000E+00  0.2000000E+00  0.1262379E-14  0.1200000E-01
      1        -10.178833      -10.178914   1.000000   1.000000
      2        -10.067675      -10.067759   1.000000   1.000000
      3        -10.064974      -10.065059   1.000000   1.000000
      4         -9.981725       -9.981810   1.000000   1.000000
      5         -9.973550       -9.973636   1.000000   1.000000
      6         -6.467340       -6.467346   1.000000   1.000000
      7          0.073055        0.073046   1.000000   1.000000
      8          2.162917        2.162915   1.000000   1.000000
      9          3.647722        3.647722   1.000000   1.000000
     10          6.668849        6.668838   0.000000   0.000000
     11          8.882800        8.882777   0.000000   0.000000
     12          9.177434        9.177444   0.000000   0.000000
     13          9.359285        9.359268   0.000000   0.000000
     14         12.012509       12.012511   0.000000   0.000000
     15         14.027716       14.027688   0.000000   0.000000
     16         14.802186       14.802146   0.000000   0.000000
 
  0.3000000E+00  0.3000000E+00  0.1262379E-14  0.6000000E-02
      1        -10.208522      -10.208602   1.000000   1.000000
      2        -10.046035      -10.046120   1.000000   1.000000
      3        -10.046034      -10.046119   1.000000   1.000000
      4         -9.999343       -9.999428   1.000000   1.000000
      5         -9.964303       -9.964388   1.000000   1.000000
      6         -6.340389       -6.340394   1.000000   1.000000
      7          0.018036        0.018025   1.000000   1.000000
      8          2.617696        2.617699   1.000000   1.000000
      9          2.617696        2.617699   1.000000   1.000000
     10          6.306364        6.306348   0.000000   0.000000
     11          6.983332        6.983313   0.000000   0.000000
     12         11.181787       11.181785   0.000000   0.000000
     13         11.181787       11.181786   0.000000   0.000000
     14         11.281109       11.281083   0.000000   0.000000
     15         14.826922       14.826947   0.000000   0.000000
     16         16.062587       16.062523   0.000000   0.000000
 
  0.4000000E+00  0.3000000E+00  0.1262379E-14  0.2400000E-01
      1        -10.227051      -10.227131   1.000000   1.000000
      2        -10.039228      -10.039313   1.000000   1.000000
      3        -10.037067      -10.037152   1.000000   1.000000
      4        -10.001839      -10.001924   1.000000   1.000000
      5         -9.962203       -9.962288   1.000000   1.000000
      6         -6.007117       -6.007123   1.000000   1.000000
      7         -0.602301       -0.602311   1.000000   1.000000
      8          2.168351        2.168352   1.000000   1.000000
      9          2.425640        2.425643   1.000000   1.000000
     10          6.352418        6.352403   0.000000   0.000000
     11          7.065750        7.065730   0.000000   0.000000
     12         10.866305       10.866287   0.000000   0.000000
     13         11.592434       11.592432   0.000000   0.000000
     14         12.813920       12.813902   0.000000   0.000000
     15         15.290481       15.290499   0.000000   0.000000
     16         16.235853       16.235810   0.000000   0.000000
 
  0.5000000E+00  0.3000000E+00  0.1262379E-14  0.2400000E-01
      1        -10.234433      -10.234513   1.000000   1.000000
      2        -10.040868      -10.040953   1.000000   1.000000
      3        -10.033690      -10.033775   1.000000   1.000000
      4         -9.998144       -9.998229   1.000000   1.000000
      5         -9.963613       -9.963698   1.000000   1.000000
      6         -5.698911       -5.698918   1.000000   1.000000
      7         -1.088754       -1.088763   1.000000   1.000000
      8          1.567904        1.567903   1.000000   1.000000
      9          2.414562        2.414565   1.000000   1.000000
     10          6.431969        6.431952   0.000000   0.000000
     11          7.944875        7.944858   0.000000   0.000000
     12         10.647912       10.647891   0.000000   0.000000
     13         11.443590       11.443592   0.000000   0.000000
     14         13.419216       13.419188   0.000000   0.000000
     15         15.342258       15.342257   0.000000   0.000000
     16         16.019900       16.019878   0.000000   0.000000
 
 -0.4000000E+00  0.3000000E+00  0.1262379E-14  0.2400000E-01
      1        -10.230459      -10.230539   1.000000   1.000000
      2        -10.046929      -10.047014   1.000000   1.000000
      3        -10.036215      -10.036300   1.000000   1.000000
      4         -9.990645       -9.990730   1.000000   1.000000
      5         -9.969048       -9.969134   1.000000   1.000000
      6         -5.587493       -5.587500   1.000000   1.000000
      7         -1.230406       -1.230414   1.000000   1.000000
      8          1.153752        1.153750   1.000000   1.000000
      9          2.586031        2.586034   1.000000   1.000000
     10          6.561967        6.561951   0.000000   0.000000
     11          9.011157        9.011139   0.000000   0.000000
     12         10.819350       10.819331   0.000000   0.000000
     13         11.018757       11.018761   0.000000   0.000000
     14         12.180596       12.180566   0.000000   0.000000
     15         13.966482       13.966482   0.000000   0.000000
     16         16.440794       16.440764   0.000000   0.000000
 
 -0.3000000E+00  0.3000000E+00  0.1262379E-14  0.1200000E-01
      1        -10.218050      -10.218130   1.000000   1.000000
      2        -10.053789      -10.053874   1.000000   1.000000
      3        -10.044607      -10.044692   1.000000   1.000000
      4         -9.982055       -9.982140   1.000000   1.000000
      5         -9.975372       -9.975458   1.000000   1.000000
      6         -5.751121       -5.751128   1.000000   1.000000
      7         -1.018912       -1.018920   1.000000   1.000000
      8          1.153777        1.153775   1.000000   1.000000
      9          2.905866        2.905868   1.000000   1.000000
     10          6.771948        6.771934   0.000000   0.000000
     11          9.368440        9.368418   0.000000   0.000000
     12         10.392849       10.392856   0.000000   0.000000
     13         10.429581       10.429560   0.000000   0.000000
     14         12.395945       12.395919   0.000000   0.000000
     15         12.932869       12.932870   0.000000   0.000000
     16         16.515180       16.515147   0.000000   0.000000
 
  0.4000000E+00  0.4000000E+00  0.1262379E-14  0.6000000E-02
      1        -10.245180      -10.245260   1.000000   1.000000
      2        -10.026979      -10.027064   1.000000   1.000000
      3        -10.026978      -10.027063   1.000000   1.000000
      4        -10.008809      -10.008894   1.000000   1.000000
      5         -9.959049       -9.959135   1.000000   1.000000
      6         -5.762877       -5.762884   1.000000   1.000000