 vasp.6.4.2 20Jul23 (build Jun  5 2025 09:16:51) complex                         
 executed on    LinuxNV_CrayMPICH date 2025.10.22  18:30:53
 running    4 mpi-ranks, with    1 threads/rank, on    1 nodes
 distrk:  each k-point on    4 cores,    1 groups
 distr:  one band on NCORE=   1 cores,    4 groups
 OpenACC runtime initialized ...    4 GPUs detected


--------------------------------------------------------------------------------------------------------


 INCAR:
   ALGO = Normal
   EDIFF = 1e-06
   EDIFFG = -0.01
   ENCUT = 520.0
   IBRION = -1
   ISIF = 3
   ISMEAR = 0
   ISPIN = 2
   LAECHG = True
   LASPH = True
   LCHARG = True
   LMAXMIX = 4
   LORBIT = 11
   LREAL = False
   LVHAR = True
   LWAVE = True
   MAGMOM = 2*0.6
   NELM = 100
   NSW = 0
   PREC = Accurate
   SIGMA = 0.05

 POTCAR:   PAW_PBE In_d 06Sep2000                 
 POTCAR:   PAW_PBE As 06Sep2000                   
 POTCAR:   PAW_PBE In_d 06Sep2000                 
   VRHFIN =In: s2p1                                                                                 
   LEXCH  = PE                                                                                      
   EATOM  =  1576.8738 eV,  115.8970 Ry                                                             
                                                                                                    
   TITEL  = PAW_PBE In_d 06Sep2000                                                                  
   LULTRA =        F    use ultrasoft PP ?                                                          
   IUNSCR =        1    unscreen: 0-lin 1-nonlin 2-no                                               
   RPACOR =    2.200    partial core radius                                                         
   POMASS =  114.820; ZVAL   =   13.000    mass and valenz                                          
   RCORE  =    2.500    outmost cutoff radius                                                       
   RWIGS  =    3.170; RWIGS  =    1.677    wigner-seitz radius (au A)                               
   ENMAX  =  239.218; ENMIN  =  179.413 eV                                                          
   ICORE  =        3    local potential                                                             
   LCOR   =        T    correct aug charges                                                         
   LPAW   =        T    paw PP                                                                      
   EAUG   =  449.704                                                                                
   DEXC   =    -.003                                                                                
   RMAX   =    2.981    core radius for proj-oper                                                   
   RAUG   =    1.300    factor for augmentation sphere                                              
   RDEP   =    2.630    radius for radial grids                                                     
   QCUT   =   -4.193; QGAM   =    8.386    optimization parameters                                  
                                                                                                    
   Description                                                                                      
     l     E      TYP  RCUT    TYP  RCUT                                                            
     2   .000     23  2.500                                                                         
     2  -.100     23  2.500                                                                         
     0   .000     23  2.500                                                                         
     0   .000     23  2.500                                                                         
     1   .000     23  2.500                                                                         
     1   .000     23  2.500                                                                         
     3  -.100      7  2.500                                                                         
  local pseudopotential read in
  partial core-charges read in
  atomic valenz-charges read in
  non local Contribution for L=            2  read in
    real space projection operators read in
  non local Contribution for L=            2  read in
    real space projection operators read in
  non local Contribution for L=            0  read in
    real space projection operators read in
  non local Contribution for L=            0  read in
    real space projection operators read in
  non local Contribution for L=            1  read in
    real space projection operators read in
  non local Contribution for L=            1  read in
    real space projection operators read in
    PAW grid and wavefunctions read in
 
   number of l-projection  operators is LMAX  =            6
   number of lm-projection operators is LMMAX =           18
 
 POTCAR:   PAW_PBE As 06Sep2000                   
   VRHFIN =As: s2p3                                                                                 
   LEXCH  = PE                                                                                      
   EATOM  =   170.0753 eV,   12.5002 Ry                                                             
                                                                                                    
   TITEL  = PAW_PBE As 06Sep2000                                                                    
   LULTRA =        F    use ultrasoft PP ?                                                          
   IUNSCR =        1    unscreen: 0-lin 1-nonlin 2-no                                               
   RPACOR =    1.900    partial core radius                                                         
   POMASS =   74.922; ZVAL   =    5.000    mass and valenz                                          
   RCORE  =    2.100    outmost cutoff radius                                                       
   RWIGS  =    2.300; RWIGS  =    1.217    wigner-seitz radius (au A)                               
   ENMAX  =  208.680; ENMIN  =  156.510 eV                                                          
   ICORE  =        3    local potential                                                             
   LCOR   =        T    correct aug charges                                                         
   LPAW   =        T    paw PP                                                                      
   EAUG   =  462.758                                                                                
   DEXC   =    -.108                                                                                
   RMAX   =    3.192    core radius for proj-oper                                                   
   RAUG   =    1.300    factor for augmentation sphere                                              
   RDEP   =    2.140    radius for radial grids                                                     
   QCUT   =   -3.916; QGAM   =    7.833    optimization parameters                                  
                                                                                                    
   Description                                                                                      
     l     E      TYP  RCUT    TYP  RCUT                                                            
     0   .000     23  2.100                                                                         
     0   .000     23  2.100                                                                         
     1   .000     23  2.100                                                                         
     1   .000     23  2.100                                                                         
     2   .000     23  2.100                                                                         
     3  -.100      7  2.100                                                                         
  local pseudopotential read in
  partial core-charges read in
  atomic valenz-charges read in
  non local Contribution for L=            0  read in
    real space projection operators read in
  non local Contribution for L=            0  read in
    real space projection operators read in
  non local Contribution for L=            1  read in
    real space projection operators read in
  non local Contribution for L=            1  read in
    real space projection operators read in
  non local Contribution for L=            2  read in
    real space projection operators read in
    PAW grid and wavefunctions read in
 
   number of l-projection  operators is LMAX  =            5
   number of lm-projection operators is LMMAX =           13
 
 PAW_PBE In_d 06Sep2000                 :
 energy of atom  1       EATOM=-1576.8738
 kinetic energy error for atom=    0.0029 (will be added to EATOM!!)
 PAW_PBE As 06Sep2000                   :
 energy of atom  2       EATOM= -170.0753
 kinetic energy error for atom=    0.0005 (will be added to EATOM!!)
 
 
 POSCAR: In1 As1
  positions in direct lattice
  velocities in cartesian coordinates
  No initial velocities read in
 exchange correlation table for  LEXCH =        8
   RHO(1)=    0.500       N(1)  =     2000
   RHO(2)=  100.500       N(2)  =     4000
 


--------------------------------------------------------------------------------------------------------


 ion  position               nearest neighbor table
   1  0.250  0.250  0.250-   2 2.64   2 2.64   2 2.64   2 2.64
   2  0.000  0.000  0.000-   1 2.64   1 2.64   1 2.64   1 2.64
 
  LATTYP: Found a face centered cubic cell.
 ALAT       =     6.0928913298
  
  Lattice vectors:
  
 A1 = (   3.7311192925,  -0.0000000008,   2.1541623129)
 A2 = (   1.2437067693,   3.5177323065,   2.1541623129)
 A3 = (  -0.0000000000,  -0.0000000000,   4.3083246158)


Analysis of symmetry for initial positions (statically):
=====================================================================
 Subroutine PRICEL returns:
 Original cell was already a primitive cell.
 

 Routine SETGRP: Setting up the symmetry group for a 
 face centered cubic supercell.


 Subroutine GETGRP returns: Found 24 space group operations
 (whereof 24 operations were pure point group operations)
 out of a pool of 48 trial point group operations.


The static configuration has the point symmetry T_d .


Analysis of symmetry for dynamics (positions and initial velocities):
=====================================================================
 Subroutine PRICEL returns:
 Original cell was already a primitive cell.
 

 Routine SETGRP: Setting up the symmetry group for a 
 face centered cubic supercell.


 Subroutine GETGRP returns: Found 24 space group operations
 (whereof 24 operations were pure point group operations)
 out of a pool of 48 trial point group operations.


The dynamic configuration has the point symmetry T_d .


Analysis of structural, dynamic, and magnetic symmetry:
=====================================================================
 Subroutine PRICEL returns:
 Original cell was already a primitive cell.
 

 Routine SETGRP: Setting up the symmetry group for a 
 face centered cubic supercell.


 Subroutine GETGRP returns: Found 24 space group operations
 (whereof 24 operations were pure point group operations)
 out of a pool of 48 trial point group operations.


The overall configuration has the point symmetry T_d .


 Subroutine INISYM returns: Found 24 space group operations
 (whereof 24 operations are pure point group operations),
 and found     1 'primitive' translations


----------------------------------------------------------------------------------------

                                     Primitive cell                                     

  volume of cell :      56.5471

  direct lattice vectors                    reciprocal lattice vectors
     3.731119293 -0.000000001  2.154162313     0.268016089 -0.094758042  0.000000000
     1.243706769  3.517732307  2.154162313     0.000000000  0.284274047  0.000000000
    -0.000000000 -0.000000000  4.308324616    -0.134008045 -0.094758003  0.232108787

  length of vectors
     4.308325248  4.308324776  4.308324616     0.284274006  0.284274047  0.284274030

  position of ions in fractional coordinates (direct lattice)
     0.250000000  0.250000000  0.250000000
     0.000000000  0.000000000  0.000000000

  ion indices of the primitive-cell ions
   primitive index   ion index
                 1           1
                 2           2

----------------------------------------------------------------------------------------

 
 
 KPOINTS: pymatgen with grid density = 835 / numbe

Automatic generation of k-mesh.
 Grid dimensions read from file:
 generate k-points for:   10   10   10

 Generating k-lattice:

  Cartesian coordinates                     Fractional coordinates (reciprocal lattice)
     0.026801609 -0.009475804  0.000000000     0.100000000 -0.000000000 -0.000000000
     0.000000000  0.028427405  0.000000000     0.000000000  0.100000000  0.000000000
    -0.013400804 -0.009475800  0.023210879     0.000000000 -0.000000000  0.100000000

  Length of vectors
     0.028427401  0.028427405  0.028427403

  Shift w.r.t. Gamma in fractional coordinates (k-lattice)
     0.000000000  0.000000000  0.000000000

 
 Subroutine IBZKPT returns following result:
 ===========================================
 
 Found     47 irreducible k-points:
 
 Following reciprocal coordinates:
            Coordinates               Weight
  0.000000  0.000000  0.000000      1.000000
  0.100000  0.000000  0.000000      8.000000
  0.200000  0.000000  0.000000      8.000000
  0.300000  0.000000  0.000000      8.000000
  0.400000  0.000000  0.000000      8.000000
  0.500000  0.000000  0.000000      4.000000
  0.100000  0.100000  0.000000      6.000000
  0.200000  0.100000  0.000000     24.000000
  0.300000  0.100000  0.000000     24.000000
  0.400000  0.100000  0.000000     24.000000
  0.500000  0.100000  0.000000     24.000000
 -0.400000  0.100000  0.000000     24.000000
 -0.300000  0.100000  0.000000     24.000000
 -0.200000  0.100000  0.000000     24.000000
 -0.100000  0.100000  0.000000     12.000000
  0.200000  0.200000  0.000000      6.000000
  0.300000  0.200000  0.000000     24.000000
  0.400000  0.200000  0.000000     24.000000
  0.500000  0.200000  0.000000     24.000000
 -0.400000  0.200000  0.000000     24.000000
 -0.300000  0.200000  0.000000     24.000000
 -0.200000  0.200000  0.000000     12.000000
  0.300000  0.300000  0.000000      6.000000
  0.400000  0.300000  0.000000     24.000000
  0.500000  0.300000  0.000000     24.000000
 -0.400000  0.300000  0.000000     24.000000
 -0.300000  0.300000  0.000000     12.000000
  0.400000  0.400000  0.000000      6.000000
  0.500000  0.400000  0.000000     24.000000
 -0.400000  0.400000  0.000000     12.000000
  0.500000  0.500000  0.000000      3.000000
  0.300000  0.200000  0.100000     24.000000
  0.400000  0.200000  0.100000     48.000000
  0.500000  0.200000  0.100000     48.000000
 -0.400000  0.200000  0.100000     24.000000
  0.400000  0.300000  0.100000     24.000000
  0.500000  0.300000  0.100000     48.000000
 -0.400000  0.300000  0.100000     48.000000
 -0.300000  0.300000  0.100000     48.000000
 -0.200000  0.300000  0.100000     24.000000
  0.500000  0.400000  0.100000     24.000000
 -0.400000  0.400000  0.100000     48.000000
 -0.300000  0.400000  0.100000     24.000000
 -0.400000  0.500000  0.100000     12.000000
 -0.400000  0.400000  0.200000     24.000000
 -0.300000  0.400000  0.200000     24.000000
 -0.300000  0.500000  0.200000     12.000000
 
 Following cartesian coordinates:
            Coordinates               Weight
  0.000000  0.000000  0.000000      1.000000
  0.026802 -0.009476  0.000000      8.000000
  0.053603 -0.018952  0.000000      8.000000
  0.080405 -0.028427  0.000000      8.000000
  0.107206 -0.037903  0.000000      8.000000
  0.134008 -0.047379  0.000000      4.000000
  0.026802  0.018952  0.000000      6.000000
  0.053603  0.009476  0.000000     24.000000
  0.080405 -0.000000  0.000000     24.000000
  0.107206 -0.009476  0.000000     24.000000
  0.134008 -0.018952  0.000000     24.000000
 -0.107206  0.066331 -0.000000     24.000000
 -0.080405  0.056855 -0.000000     24.000000
 -0.053603  0.047379 -0.000000     24.000000
 -0.026802  0.037903  0.000000     12.000000
  0.053603  0.037903  0.000000      6.000000
  0.080405  0.028427  0.000000     24.000000
  0.107206  0.018952  0.000000     24.000000
  0.134008  0.009476  0.000000     24.000000
 -0.107206  0.094758 -0.000000     24.000000
 -0.080405  0.085282 -0.000000     24.000000
 -0.053603  0.075806  0.000000     12.000000
  0.080405  0.056855  0.000000      6.000000
  0.107206  0.047379  0.000000     24.000000
  0.134008  0.037903  0.000000     24.000000
 -0.107206  0.123185 -0.000000     24.000000
 -0.080405  0.113710  0.000000     12.000000
  0.107206  0.075806  0.000000      6.000000
  0.134008  0.066331  0.000000     24.000000
 -0.107206  0.151613  0.000000     12.000000
  0.134008  0.094758  0.000000      3.000000
  0.067004  0.018952  0.023211     24.000000
  0.093806  0.009476  0.023211     48.000000
  0.120607 -0.000000  0.023211     48.000000
 -0.120607  0.085282  0.023211     24.000000
  0.093806  0.037903  0.023211     24.000000
  0.120607  0.028427  0.023211     48.000000
 -0.120607  0.113710  0.023211     48.000000
 -0.093806  0.104234  0.023211     48.000000
 -0.067004  0.094758  0.023211     24.000000
  0.120607  0.056855  0.023211     24.000000
 -0.120607  0.142137  0.023211     48.000000
 -0.093806  0.132661  0.023211     24.000000
 -0.120607  0.170564  0.023211     12.000000
 -0.134008  0.132661  0.046422     24.000000
 -0.107206  0.123185  0.046422     24.000000
 -0.107206  0.151613  0.046422     12.000000
 


--------------------------------------------------------------------------------------------------------




 Dimension of arrays:
   k-points           NKPTS =     47   k-points in BZ     NKDIM =     47   number of bands    NBANDS=     16
   number of dos      NEDOS =    301   number of ions     NIONS =      2
   non local maximal  LDIM  =      6   non local SUM 2l+1 LMDIM =     18
   total plane-waves  NPLWV =  32768
   max r-space proj   IRMAX =      1   max aug-charges    IRDMAX=  25227
   dimension x,y,z NGX =    32 NGY =   32 NGZ =   32
   dimension x,y,z NGXF=    64 NGYF=   64 NGZF=   64
   support grid    NGXF=    64 NGYF=   64 NGZF=   64
   ions per type =               1   1
   NGX,Y,Z   is equivalent  to a cutoff of  12.35, 12.35, 12.35 a.u.
   NGXF,Y,Z  is equivalent  to a cutoff of  24.70, 24.70, 24.70 a.u.

 SYSTEM =  unknown system                          
 POSCAR =  In1 As1                                 

 Startparameter for this run:
   NWRITE =      2    write-flag & timer
   PREC   = accura    normal or accurate (medium, high low for compatibility)
   ISTART =      0    job   : 0-new  1-cont  2-samecut
   ICHARG =      2    charge: 1-file 2-atom 10-const
   ISPIN  =      2    spin polarized calculation?
   LNONCOLLINEAR =      F non collinear calculations
   LSORBIT =      F    spin-orbit coupling
   INIWAV =      1    electr: 0-lowe 1-rand  2-diag
   LASPH  =      T    aspherical Exc in radial PAW
 Electronic Relaxation 1
   ENCUT  =  520.0 eV  38.22 Ry    6.18 a.u.   8.01  8.01  8.01*2*pi/ulx,y,z
   ENINI  =  520.0     initial cutoff
   ENAUG  =  462.8 eV  augmentation charge cutoff
   NELM   =    100;   NELMIN=  2; NELMDL= -5     # of ELM steps 
   EDIFF  = 0.1E-05   stopping-criterion for ELM
   LREAL  =      F    real-space projection
   NLSPLINE    = F    spline interpolate recip. space projectors
   LCOMPAT=      F    compatible to vasp.4.4
   GGA_COMPAT  = T    GGA compatible to vasp.4.4-vasp.4.6
   LMAXPAW     = -100 max onsite density
   LMAXMIX     =    4 max onsite mixed and CHGCAR
   VOSKOWN=      0    Vosko Wilk Nusair interpolation
   ROPT   =    0.00000   0.00000
 Ionic relaxation
   EDIFFG = -.1E-01   stopping-criterion for IOM
   NSW    =      0    number of steps for IOM
   NBLOCK =      1;   KBLOCK =      1    inner block; outer block 
   IBRION =     -1    ionic relax: 0-MD 1-quasi-New 2-CG
   NFREE  =      0    steps in history (QN), initial steepest desc. (CG)
   ISIF   =      3    stress and relaxation
   IWAVPR =     10    prediction:  0-non 1-charg 2-wave 3-comb
   ISYM   =      2    0-nonsym 1-usesym 2-fastsym
   LCORR  =      T    Harris-Foulkes like correction to forces

   POTIM  = 0.5000    time-step for ionic-motion
   TEIN   =    0.0    initial temperature
   TEBEG  =    0.0;   TEEND  =   0.0 temperature during run
   SMASS  =  -3.00    Nose mass-parameter (am)
   estimated Nose-frequenzy (Omega)   =  0.10E-29 period in steps = 0.13E+47 mass=  -0.424E-27a.u.
   SCALEE = 1.0000    scale energy and forces
   NPACO  =    256;   APACO  = 10.0  distance and # of slots for P.C.
   PSTRESS=    0.0 pullay stress

  Mass of Ions in am
   POMASS = 114.82 74.92
  Ionic Valenz
   ZVAL   =  13.00  5.00
  Atomic Wigner-Seitz radii
   RWIGS  =  -1.00 -1.00
  virtual crystal weights 
   VCA    =   1.00  1.00
   NELECT =      18.0000    total number of electrons
   NUPDOWN=      -1.0000    fix difference up-down

 DOS related values:
   EMIN   =  10.00;   EMAX   =-10.00  energy-range for DOS
   EFERMI =   0.00;   METHOD = LEGACY      
   ISMEAR =     0;   SIGMA  =   0.05  broadening in eV -4-tet -1-fermi 0-gaus

 Electronic relaxation 2 (details)
   IALGO  =     38    algorithm
   LDIAG  =      T    sub-space diagonalisation (order eigenvalues)
   LSUBROT=      F    optimize rotation matrix (better conditioning)
   TURBO    =      0    0=normal 1=particle mesh
   IRESTART =      0    0=no restart 2=restart with 2 vectors
   NREBOOT  =      0    no. of reboots
   NMIN     =      0    reboot dimension
   EREF     =   0.00    reference energy to select bands
   IMIX   =      4    mixing-type and parameters
     AMIX     =   0.40;   BMIX     =  1.00
     AMIX_MAG =   1.60;   BMIX_MAG =  1.00
     AMIN     =   0.10
     WC   =   100.;   INIMIX=   1;  MIXPRE=   1;  MAXMIX= -45

 Intra band minimization:
   WEIMIN = 0.0000     energy-eigenvalue tresh-hold
   EBREAK =  0.16E-07  absolut break condition
   DEPER  =   0.30     relativ break condition  

   TIME   =   0.40     timestep for ELM

  volume/ion in A,a.u.               =      28.27       190.80
  Fermi-wavevector in a.u.,A,eV,Ry     =   1.117795  2.112327 17.000017  1.249466
  Thomas-Fermi vector in A             =   2.254421
 
 Write flags
   LWAVE        =      T    write WAVECAR
   LDOWNSAMPLE  =      F    k-point downsampling of WAVECAR
   LCHARG       =      T    write CHGCAR
   LVTOT        =      F    write LOCPOT, total local potential
   LVHAR        =      T    write LOCPOT, Hartree potential only
   LELF         =      F    write electronic localiz. function (ELF)
   LORBIT       =     11    0 simple, 1 ext, 2 COOP (PROOUT), +10 PAW based schemes


 Dipole corrections
   LMONO  =      F    monopole corrections only (constant potential shift)
   LDIPOL =      F    correct potential (dipole corrections)
   IDIPOL =      0    1-x, 2-y, 3-z, 4-all directions 
   EPSILON=  1.0000000 bulk dielectric constant

 Exchange correlation treatment:
   GGA     =    --    GGA type
   LEXCH   =     8    internal setting for exchange type
   LIBXC   =     F    Libxc                    
   VOSKOWN =     0    Vosko Wilk Nusair interpolation
   LHFCALC =     F    Hartree Fock is set to
   LHFONE  =     F    Hartree Fock one center treatment
   AEXX    =    0.0000 exact exchange contribution

 Linear response parameters
   LEPSILON=     F    determine dielectric tensor
   LRPA    =     F    only Hartree local field effects (RPA)
   LNABLA  =     F    use nabla operator in PAW spheres
   LVEL    =     F    velocity operator in full k-point grid
   CSHIFT  =0.1000    complex shift for real part using Kramers Kronig
   OMEGAMAX=  -1.0    maximum frequency
   DEG_THRESHOLD= 0.2000000E-02 threshold for treating states as degnerate
   RTIME   =   -0.100 relaxation time in fs
  (WPLASMAI=    0.000 imaginary part of plasma frequency in eV, 0.658/RTIME)
   DFIELD  = 0.0000000 0.0000000 0.0000000 field for delta impulse in time
 
  Optional k-point grid parameters
   LKPOINTS_OPT  =     F    use optional k-point grid
   KPOINTS_OPT_MODE=     1    mode for optional k-point grid
 
 Orbital magnetization related:
   ORBITALMAG=     F  switch on orbital magnetization
   LCHIMAG   =     F  perturbation theory with respect to B field
   DQ        =  0.001000  dq finite difference perturbation B field
   LLRAUG    =     F  two centre corrections for induced B field
   LBONE     =     F  B-component reconstruction in AE one-centre
   LVGVCALC  =     T  calculate vGv susceptibility
   LVGVAPPL  =     F  apply vGv susceptibility instead of pGv for G=0

 Random number generation:
   RANDOM_GENERATOR = DEFAULT
   PCG_SEED         = not used


--------------------------------------------------------------------------------------------------------


 Static calculation
 charge density and potential will be updated during run
 spin polarized calculation
 Variant of blocked Davidson
 Davidson routine will perform the subspace rotation
 perform sub-space diagonalisation
    after iterative eigenvector-optimisation
 modified Broyden-mixing scheme, WC =      100.0
 initial mixing is a Kerker type mixing with AMIX =  0.4000 and BMIX =      1.0000
 Hartree-type preconditioning will be used
 using additional bands             7
 reciprocal scheme for non local part
 use partial core corrections
 calculate Harris-corrections to forces 
   (improved forces if not selfconsistent)
 use gradient corrections 
 use of overlap-Matrix (Vanderbilt PP)
 Gauss-broadening in eV      SIGMA  =   0.05


--------------------------------------------------------------------------------------------------------


  energy-cutoff  :      520.00
  volume of cell :       56.55
      direct lattice vectors                 reciprocal lattice vectors
     3.731119293 -0.000000001  2.154162313     0.268016089 -0.094758042  0.000000000
     1.243706769  3.517732307  2.154162313     0.000000000  0.284274047  0.000000000
    -0.000000000 -0.000000000  4.308324616    -0.134008045 -0.094758003  0.232108787

  length of vectors
     4.308325248  4.308324776  4.308324616     0.284274006  0.284274047  0.284274030


 
 k-points in units of 2pi/SCALE and weight: pymatgen with grid density = 835 / numbe
   0.00000000  0.00000000  0.00000000       0.001
   0.02680161 -0.00947580  0.00000000       0.008
   0.05360322 -0.01895161  0.00000000       0.008
   0.08040483 -0.02842741  0.00000000       0.008
   0.10720644 -0.03790322  0.00000000       0.008
   0.13400804 -0.04737902  0.00000000       0.004
   0.02680161  0.01895160  0.00000000       0.006
   0.05360322  0.00947580  0.00000000       0.024
   0.08040483 -0.00000001  0.00000000       0.024
   0.10720644 -0.00947581  0.00000000       0.024
   0.13400804 -0.01895162  0.00000000       0.024
  -0.10720644  0.06633062 -0.00000000       0.024
  -0.08040483  0.05685482 -0.00000000       0.024
  -0.05360322  0.04737901 -0.00000000       0.024
  -0.02680161  0.03790321  0.00000000       0.012
   0.05360322  0.03790320  0.00000000       0.006
   0.08040483  0.02842740  0.00000000       0.024
   0.10720644  0.01895159  0.00000000       0.024
   0.13400804  0.00947579  0.00000000       0.024
  -0.10720644  0.09475803 -0.00000000       0.024
  -0.08040483  0.08528222 -0.00000000       0.024
  -0.05360322  0.07580642  0.00000000       0.012
   0.08040483  0.05685480  0.00000000       0.006
   0.10720644  0.04737900  0.00000000       0.024
   0.13400804  0.03790319  0.00000000       0.024
  -0.10720644  0.12318543 -0.00000000       0.024
  -0.08040483  0.11370963  0.00000000       0.012
   0.10720644  0.07580640  0.00000000       0.006
   0.13400804  0.06633060  0.00000000       0.024
  -0.10720644  0.15161284  0.00000000       0.012
   0.13400804  0.09475800  0.00000000       0.003
   0.06700402  0.01895160  0.02321088       0.024
   0.09380563  0.00947579  0.02321088       0.048
   0.12060724 -0.00000001  0.02321088       0.048
  -0.12060724  0.08528223  0.02321088       0.024
   0.09380563  0.03790320  0.02321088       0.024
   0.12060724  0.02842739  0.02321088       0.048
  -0.12060724  0.11370963  0.02321088       0.048
  -0.09380563  0.10423383  0.02321088       0.048
  -0.06700402  0.09475802  0.02321088       0.024
   0.12060724  0.05685480  0.02321088       0.024
  -0.12060724  0.14213704  0.02321088       0.048
  -0.09380563  0.13266123  0.02321088       0.024
  -0.12060724  0.17056444  0.02321088       0.012
  -0.13400804  0.13266123  0.04642176       0.024
  -0.10720644  0.12318543  0.04642176       0.024
  -0.10720644  0.15161284  0.04642176       0.012
 
 k-points in reciprocal lattice and weights: pymatgen with grid density = 835 / numbe
   0.00000000  0.00000000  0.00000000       0.001
   0.10000000  0.00000000  0.00000000       0.008
   0.20000000  0.00000000  0.00000000       0.008
   0.30000000  0.00000000  0.00000000       0.008
   0.40000000  0.00000000  0.00000000       0.008
   0.50000000  0.00000000  0.00000000       0.004
   0.10000000  0.10000000  0.00000000       0.006
   0.20000000  0.10000000  0.00000000       0.024
   0.30000000  0.10000000  0.00000000       0.024
   0.40000000  0.10000000  0.00000000       0.024
   0.50000000  0.10000000  0.00000000       0.024
  -0.40000000  0.10000000  0.00000000       0.024
  -0.30000000  0.10000000  0.00000000       0.024
  -0.20000000  0.10000000  0.00000000       0.024
  -0.10000000  0.10000000  0.00000000       0.012
   0.20000000  0.20000000  0.00000000       0.006
   0.30000000  0.20000000  0.00000000       0.024
   0.40000000  0.20000000  0.00000000       0.024
   0.50000000  0.20000000  0.00000000       0.024
  -0.40000000  0.20000000  0.00000000       0.024
  -0.30000000  0.20000000  0.00000000       0.024
  -0.20000000  0.20000000  0.00000000       0.012
   0.30000000  0.30000000  0.00000000       0.006
   0.40000000  0.30000000  0.00000000       0.024
   0.50000000  0.30000000  0.00000000       0.024
  -0.40000000  0.30000000  0.00000000       0.024
  -0.30000000  0.30000000  0.00000000       0.012
   0.40000000  0.40000000  0.00000000       0.006
   0.50000000  0.40000000  0.00000000       0.024
  -0.40000000  0.40000000  0.00000000       0.012
   0.50000000  0.50000000  0.00000000       0.003
   0.30000000  0.20000000  0.10000000       0.024
   0.40000000  0.20000000  0.10000000       0.048
   0.50000000  0.20000000  0.10000000       0.048
  -0.40000000  0.20000000  0.10000000       0.024
   0.40000000  0.30000000  0.10000000       0.024
   0.50000000  0.30000000  0.10000000       0.048
  -0.40000000  0.30000000  0.10000000       0.048
  -0.30000000  0.30000000  0.10000000       0.048
  -0.20000000  0.30000000  0.10000000       0.024
   0.50000000  0.40000000  0.10000000       0.024
  -0.40000000  0.40000000  0.10000000       0.048
  -0.30000000  0.40000000  0.10000000       0.024
  -0.40000000  0.50000000  0.10000000       0.012
  -0.40000000  0.40000000  0.20000000       0.024
  -0.30000000  0.40000000  0.20000000       0.024
  -0.30000000  0.50000000  0.20000000       0.012
 
 position of ions in fractional coordinates (direct lattice) 
   0.25000000  0.25000000  0.25000000
   0.00000000  0.00000000  0.00000000
 
 position of ions in cartesian coordinates  (Angst):
   1.24370652  0.87943308  2.15416231
   0.00000000  0.00000000  0.00000000
 


--------------------------------------------------------------------------------------------------------


 k-point   1 :   0.0000 0.0000 0.0000  plane waves:    1471
 k-point   2 :   0.1000 0.0000 0.0000  plane waves:    1489
 k-point   3 :   0.2000 0.0000 0.0000  plane waves:    1528
 k-point   4 :   0.3000 0.0000 0.0000  plane waves:    1519
 k-point   5 :   0.4000 0.0000 0.0000  plane waves:    1504
 k-point   6 :   0.5000 0.0000 0.0000  plane waves:    1502
 k-point   7 :   0.1000 0.1000 0.0000  plane waves:    1499
 k-point   8 :   0.2000 0.1000 0.0000  plane waves:    1506
 k-point   9 :   0.3000 0.1000 0.0000  plane waves:    1519
 k-point  10 :   0.4000 0.1000 0.0000  plane waves:    1512
 k-point  11 :   0.5000 0.1000 0.0000  plane waves:    1521
 k-point  12 :  -0.4000 0.1000 0.0000  plane waves:    1515
 k-point  13 :  -0.3000 0.1000 0.0000  plane waves:    1517
 k-point  14 :  -0.2000 0.1000 0.0000  plane waves:    1516
 k-point  15 :  -0.1000 0.1000 0.0000  plane waves:    1512
 k-point  16 :   0.2000 0.2000 0.0000  plane waves:    1507
 k-point  17 :   0.3000 0.2000 0.0000  plane waves:    1522
 k-point  18 :   0.4000 0.2000 0.0000  plane waves:    1514
 k-point  19 :   0.5000 0.2000 0.0000  plane waves:    1527
 k-point  20 :  -0.4000 0.2000 0.0000  plane waves:    1521
 k-point  21 :  -0.3000 0.2000 0.0000  plane waves:    1523
 k-point  22 :  -0.2000 0.2000 0.0000  plane waves:    1538
 k-point  23 :   0.3000 0.3000 0.0000  plane waves:    1511
 k-point  24 :   0.4000 0.3000 0.0000  plane waves:    1527
 k-point  25 :   0.5000 0.3000 0.0000  plane waves:    1520
 k-point  26 :  -0.4000 0.3000 0.0000  plane waves:    1526
 k-point  27 :  -0.3000 0.3000 0.0000  plane waves:    1520
 k-point  28 :   0.4000 0.4000 0.0000  plane waves:    1524
 k-point  29 :   0.5000 0.4000 0.0000  plane waves:    1530
 k-point  30 :  -0.4000 0.4000 0.0000  plane waves:    1522
 k-point  31 :   0.5000 0.5000 0.0000  plane waves:    1524
 k-point  32 :   0.3000 0.2000 0.1000  plane waves:    1513
 k-point  33 :   0.4000 0.2000 0.1000  plane waves:    1523
 k-point  34 :   0.5000 0.2000 0.1000  plane waves:    1517
 k-point  35 :  -0.4000 0.2000 0.1000  plane waves:    1518
 k-point  36 :   0.4000 0.3000 0.1000  plane waves:    1525
 k-point  37 :   0.5000 0.3000 0.1000  plane waves:    1522
 k-point  38 :  -0.4000 0.3000 0.1000  plane waves:    1530
 k-point  39 :  -0.3000 0.3000 0.1000  plane waves:    1525
 k-point  40 :  -0.2000 0.3000 0.1000  plane waves:    1515
 k-point  41 :   0.5000 0.4000 0.1000  plane waves:    1533
 k-point  42 :  -0.4000 0.4000 0.1000  plane waves:    1527
 k-point  43 :  -0.3000 0.4000 0.1000  plane waves:    1526
 k-point  44 :  -0.4000 0.5000 0.1000  plane waves:    1540
 k-point  45 :  -0.4000 0.4000 0.2000  plane waves:    1531
 k-point  46 :  -0.3000 0.4000 0.2000  plane waves:    1534
 k-point  47 :  -0.3000 0.5000 0.2000  plane waves:    1524

 maximum and minimum number of plane-waves per node :      1540     1471

 maximum number of plane-waves:      1540
 maximum index in each direction: 
   IXMAX=    8   IYMAX=    8   IZMAX=    8
   IXMIN=   -8   IYMIN=   -8   IZMIN=   -8


 serial   3D FFT for wavefunctions
 parallel 3D FFT for charge:
    minimum data exchange during FFTs selected (reduces bandwidth)


 total amount of memory used by VASP MPI-rank0    70842. kBytes
=======================================================================

   base      :      30000. kBytes
   nonl-proj :      20894. kBytes
   fftplans  :       2401. kBytes
   grid      :       8028. kBytes
   one-center:         62. kBytes
   wavefun   :       9457. kBytes
 
     INWAV:  cpu time      0.0001: real time      0.0005
 Broyden mixing: mesh for mixing (old mesh)
   NGX = 17   NGY = 17   NGZ = 17
  (NGX  = 64   NGY  = 64   NGZ  = 64)
  gives a total of   4913 points

 initial charge density was supplied:
 charge density of overlapping atoms calculated
 number of electron      18.0000000 magnetization       1.2000000
 keeping initial charge density in first step


--------------------------------------------------------------------------------------------------------


 Maximum index for augmentation-charges          6069 (set IRDMAX)


--------------------------------------------------------------------------------------------------------


 First call to EWALD:  gamma=   0.462
 Maximum number of real-space cells 3x 3x 3
 Maximum number of reciprocal cells 3x 3x 3

    FEWALD:  cpu time      0.0004: real time      0.0004


--------------------------------------- Ionic step        1  -------------------------------------------




--------------------------------------- Iteration      1(   1)  ---------------------------------------


    POTLOK:  cpu time      0.0804: real time      0.0631
    SETDIJ:  cpu time      0.4066: real time      0.4065
     EDDAV:  cpu time      1.2041: real time      1.2247
       DOS:  cpu time      0.0007: real time      0.0007
    --------------------------------------------
      LOOP:  cpu time      1.6918: real time      1.6950

 eigenvalue-minimisations  :  3024
 total energy-change (2. order) : 0.1066875E+03  (-0.8430799E+03)
 number of electron      18.0000000 magnetization       1.2000000
 augmentation part       18.0000000 magnetization       1.2000000

 Free energy of the ion-electron system (eV)
  ---------------------------------------------------
  alpha Z        PSCENC =        37.49967080
  Ewald energy   TEWEN  =     -1174.26048609
  -Hartree energ DENC   =      -577.75894780
  -exchange      EXHF   =         0.00000000
  -V(xc)+E(xc)   XCENC  =        29.88715008
  PAW double counting   =      1284.59198191    -1253.67447314
  entropy T*S    EENTRO =        -0.00060100
  eigenvalues    EBANDS =        13.45747440
  atomic energy  EATOM  =      1746.94572762
  Solvation  Ediel_sol  =         0.00000000
  ---------------------------------------------------
  free energy    TOTEN  =       106.68749679 eV

  energy without entropy =      106.68809778  energy(sigma->0) =      106.68779728


--------------------------------------------------------------------------------------------------------




--------------------------------------- Iteration      1(   2)  ---------------------------------------


     EDDAV:  cpu time      1.0615: real time      1.0624
       DOS:  cpu time      0.0006: real time      0.0006
    --------------------------------------------
      LOOP:  cpu time      1.0621: real time      1.0629

 eigenvalue-minimisations  :  3224
 total energy-change (2. order) :-0.1074884E+03  (-0.1027883E+03)
 number of electron      18.0000000 magnetization       1.2000000
 augmentation part       18.0000000 magnetization       1.2000000

 Free energy of the ion-electron system (eV)
  ---------------------------------------------------
  alpha Z        PSCENC =        37.49967080
  Ewald energy   TEWEN  =     -1174.26048609
  -Hartree energ DENC   =      -577.75894780
  -exchange      EXHF   =         0.00000000
  -V(xc)+E(xc)   XCENC  =        29.88715008
  PAW double counting   =      1284.59198191    -1253.67447314
  entropy T*S    EENTRO =        -0.00027121
  eigenvalues    EBANDS =       -94.03121977
  atomic energy  EATOM  =      1746.94572762
  Solvation  Ediel_sol  =         0.00000000
  ---------------------------------------------------
  free energy    TOTEN  =        -0.80086759 eV

  energy without entropy =       -0.80059638  energy(sigma->0) =       -0.80073198


--------------------------------------------------------------------------------------------------------




--------------------------------------- Iteration      1(   3)  ---------------------------------------


     EDDAV:  cpu time      1.2434: real time      1.2443
       DOS:  cpu time      0.0006: real time      0.0006
    --------------------------------------------
      LOOP:  cpu time      1.2440: real time      1.2448

 eigenvalue-minimisations  :  3928
 total energy-change (2. order) :-0.7037950E+01  (-0.7003341E+01)
 number of electron      18.0000000 magnetization       1.2000000
 augmentation part       18.0000000 magnetization       1.2000000

 Free energy of the ion-electron system (eV)
  ---------------------------------------------------
  alpha Z        PSCENC =        37.49967080
  Ewald energy   TEWEN  =     -1174.26048609
  -Hartree energ DENC   =      -577.75894780
  -exchange      EXHF   =         0.00000000
  -V(xc)+E(xc)   XCENC  =        29.88715008
  PAW double counting   =      1284.59198191    -1253.67447314
  entropy T*S    EENTRO =        -0.00004484
  eigenvalues    EBANDS =      -101.06939582
  atomic energy  EATOM  =      1746.94572762
  Solvation  Ediel_sol  =         0.00000000
  ---------------------------------------------------
  free energy    TOTEN  =        -7.83881728 eV

  energy without entropy =       -7.83877244  energy(sigma->0) =       -7.83879486


--------------------------------------------------------------------------------------------------------




--------------------------------------- Iteration      1(   4)  ---------------------------------------


     EDDAV:  cpu time      1.1688: real time      1.1692
       DOS:  cpu time      0.0006: real time      0.0006
    --------------------------------------------
      LOOP:  cpu time      1.1694: real time      1.1698

 eigenvalue-minimisations  :  3624
 total energy-change (2. order) :-0.1570107E+00  (-0.1569660E+00)
 number of electron      18.0000000 magnetization       1.2000000
 augmentation part       18.0000000 magnetization       1.2000000

 Free energy of the ion-electron system (eV)
  ---------------------------------------------------
  alpha Z        PSCENC =        37.49967080
  Ewald energy   TEWEN  =     -1174.26048609
  -Hartree energ DENC   =      -577.75894780
  -exchange      EXHF   =         0.00000000
  -V(xc)+E(xc)   XCENC  =        29.88715008
  PAW double counting   =      1284.59198191    -1253.67447314
  entropy T*S    EENTRO =        -0.00005715
  eigenvalues    EBANDS =      -101.22639416
  atomic energy  EATOM  =      1746.94572762
  Solvation  Ediel_sol  =         0.00000000
  ---------------------------------------------------
  free energy    TOTEN  =        -7.99582793 eV

  energy without entropy =       -7.99577078  energy(sigma->0) =       -7.99579935


--------------------------------------------------------------------------------------------------------




--------------------------------------- Iteration      1(   5)  ---------------------------------------


     EDDAV:  cpu time      1.4298: real time      1.4302
       DOS:  cpu time      0.0006: real time      0.0006
    CHARGE:  cpu time      0.0639: real time      0.0639
    MIXING:  cpu time      0.0008: real time      0.0008
    --------------------------------------------
      LOOP:  cpu time      1.4950: real time      1.4955

 eigenvalue-minimisations  :  4664
 total energy-change (2. order) :-0.6820894E-02  (-0.6820777E-02)
 number of electron      17.9999992 magnetization      -0.2593646
 augmentation part        6.1652951 magnetization      -0.2547525

 Broyden mixing:
  rms(total) = 0.41727E+00    rms(broyden)= 0.41727E+00
  rms(prec ) = 0.89755E+00
  weight for this iteration     100.00

 Free energy of the ion-electron system (eV)
  ---------------------------------------------------
  alpha Z        PSCENC =        37.49967080
  Ewald energy   TEWEN  =     -1174.26048609
  -Hartree energ DENC   =      -577.75894780
  -exchange      EXHF   =         0.00000000
  -V(xc)+E(xc)   XCENC  =        29.88715008
  PAW double counting   =      1284.59198191    -1253.67447314
  entropy T*S    EENTRO =        -0.00005697
  eigenvalues    EBANDS =      -101.23321524
  atomic energy  EATOM  =      1746.94572762
  Solvation  Ediel_sol  =         0.00000000
  ---------------------------------------------------
  free energy    TOTEN  =        -8.00264882 eV

  energy without entropy =       -8.00259185  energy(sigma->0) =       -8.00262034


--------------------------------------------------------------------------------------------------------




--------------------------------------- Iteration      1(   6)  ---------------------------------------


    POTLOK:  cpu time      0.0070: real time      0.0074
    SETDIJ:  cpu time      0.4045: real time      0.4043
     EDDAV:  cpu time      1.4111: real time      1.4108
       DOS:  cpu time      0.0006: real time      0.0006
    CHARGE:  cpu time      0.0592: real time      0.0592
    MIXING:  cpu time      0.0007: real time      0.0007
    --------------------------------------------
      LOOP:  cpu time      1.8831: real time      1.8830

 eigenvalue-minimisations  :  4648
 total energy-change (2. order) : 0.1362668E+00  (-0.3902270E-01)
 number of electron      17.9999993 magnetization       0.1201108
 augmentation part        6.2113344 magnetization       0.1161897

 Broyden mixing:
  rms(total) = 0.16733E+00    rms(broyden)= 0.16733E+00
  rms(prec ) = 0.36912E+00
  weight for this iteration     100.00

 eigenvalues of (default mixing * dielectric matrix)
  average eigenvalue GAMMA=   0.7684
  0.7684

 Free energy of the ion-electron system (eV)
  ---------------------------------------------------
  alpha Z        PSCENC =        37.49967080
  Ewald energy   TEWEN  =     -1174.26048609
  -Hartree energ DENC   =      -574.09738919
  -exchange      EXHF   =         0.00000000
  -V(xc)+E(xc)   XCENC  =        29.85621860
  PAW double counting   =      1293.12659561    -1261.88553908
  entropy T*S    EENTRO =        -0.00006055
  eigenvalues    EBANDS =      -105.05111973
  atomic energy  EATOM  =      1746.94572762
  Solvation  Ediel_sol  =         0.00000000
  ---------------------------------------------------
  free energy    TOTEN  =        -7.86638200 eV

  energy without entropy =       -7.86632146  energy(sigma->0) =       -7.86635173


--------------------------------------------------------------------------------------------------------




--------------------------------------- Iteration      1(   7)  ---------------------------------------


    POTLOK:  cpu time      0.0062: real time      0.0069
    SETDIJ:  cpu time      0.4038: real time      0.4037
     EDDAV:  cpu time      1.1339: real time      1.1335
       DOS:  cpu time      0.0006: real time      0.0006
    CHARGE:  cpu time      0.0591: real time      0.0591
    MIXING:  cpu time      0.0007: real time      0.0007
    --------------------------------------------
      LOOP:  cpu time      1.6042: real time      1.6045

 eigenvalue-minimisations  :  3520
 total energy-change (2. order) : 0.1579861E-01  (-0.1027695E-01)
 number of electron      17.9999993 magnetization       0.0137618
 augmentation part        6.2200330 magnetization       0.0163045

 Broyden mixing:
  rms(total) = 0.97338E-01    rms(broyden)= 0.97338E-01
  rms(prec ) = 0.17424E+00
  weight for this iteration     100.00

 eigenvalues of (default mixing * dielectric matrix)
  average eigenvalue GAMMA=   1.0783
  1.4206  0.7360

 Free energy of the ion-electron system (eV)
  ---------------------------------------------------
  alpha Z        PSCENC =        37.49967080
  Ewald energy   TEWEN  =     -1174.26048609
  -Hartree energ DENC   =      -573.69102101
  -exchange      EXHF   =         0.00000000
  -V(xc)+E(xc)   XCENC  =        29.93237684
  PAW double counting   =      1306.08749204    -1275.18355921
  entropy T*S    EENTRO =        -0.00007543
  eigenvalues    EBANDS =      -105.18070897
  atomic energy  EATOM  =      1746.94572762
  Solvation  Ediel_sol  =         0.00000000
  ---------------------------------------------------
  free energy    TOTEN  =        -7.85058339 eV

  energy without entropy =       -7.85050796  energy(sigma->0) =       -7.85054568


--------------------------------------------------------------------------------------------------------




--------------------------------------- Iteration      1(   8)  ---------------------------------------


    POTLOK:  cpu time      0.0065: real time      0.0070
    SETDIJ:  cpu time      0.4040: real time      0.4039
     EDDAV:  cpu time      1.1021: real time      1.1018
       DOS:  cpu time      0.0006: real time      0.0006
    CHARGE:  cpu time      0.0609: real time      0.0609
    MIXING:  cpu time      0.0008: real time      0.0008
    --------------------------------------------
      LOOP:  cpu time      1.5749: real time      1.5751

 eigenvalue-minimisations  :  3376
 total energy-change (2. order) :-0.6974528E-03  (-0.1680522E-02)
 number of electron      17.9999993 magnetization      -0.0308484
 augmentation part        6.2212367 magnetization      -0.0316194

 Broyden mixing:
  rms(total) = 0.34807E-01    rms(broyden)= 0.34807E-01
  rms(prec ) = 0.79399E-01
  weight for this iteration     100.00

 eigenvalues of (default mixing * dielectric matrix)
  average eigenvalue GAMMA=   1.2524
  2.1822  0.8611  0.7140

 Free energy of the ion-electron system (eV)
  ---------------------------------------------------
  alpha Z        PSCENC =        37.49967080
  Ewald energy   TEWEN  =     -1174.26048609
  -Hartree energ DENC   =      -573.90999802
  -exchange      EXHF   =         0.00000000
  -V(xc)+E(xc)   XCENC  =        29.98933028
  PAW double counting   =      1315.13645843    -1284.59924310
  entropy T*S    EENTRO =        -0.00007621
  eigenvalues    EBANDS =      -104.65266456
  atomic energy  EATOM  =      1746.94572762
  Solvation  Ediel_sol  =         0.00000000
  ---------------------------------------------------
  free energy    TOTEN  =        -7.85128084 eV

  energy without entropy =       -7.85120464  energy(sigma->0) =       -7.85124274


--------------------------------------------------------------------------------------------------------




--------------------------------------- Iteration      1(   9)  ---------------------------------------


    POTLOK:  cpu time      0.0070: real time      0.0074
    SETDIJ:  cpu time      0.4019: real time      0.4018
     EDDAV:  cpu time      1.1464: real time      1.1464
       DOS:  cpu time      0.0007: real time      0.0007
    CHARGE:  cpu time      0.0592: real time      0.0592
    MIXING:  cpu time      0.0007: real time      0.0007
    --------------------------------------------
      LOOP:  cpu time      1.6159: real time      1.6161

 eigenvalue-minimisations  :  3544
 total energy-change (2. order) :-0.1126496E-02  (-0.2942189E-03)
 number of electron      17.9999993 magnetization       0.0005878
 augmentation part        6.2191047 magnetization       0.0008563

 Broyden mixing:
  rms(total) = 0.14804E-01    rms(broyden)= 0.14804E-01
  rms(prec ) = 0.22240E-01
  weight for this iteration     100.00

 eigenvalues of (default mixing * dielectric matrix)
  average eigenvalue GAMMA=   1.3049
  2.5394  1.2120  0.7874  0.6807

 Free energy of the ion-electron system (eV)
  ---------------------------------------------------
  alpha Z        PSCENC =        37.49967080
  Ewald energy   TEWEN  =     -1174.26048609
  -Hartree energ DENC   =      -574.27617687
  -exchange      EXHF   =         0.00000000
  -V(xc)+E(xc)   XCENC  =        30.03938417
  PAW double counting   =      1322.01606634    -1291.83764270
  entropy T*S    EENTRO =        -0.00007521
  eigenvalues    EBANDS =      -103.97887541
  atomic energy  EATOM  =      1746.94572762
  Solvation  Ediel_sol  =         0.00000000
  ---------------------------------------------------
  free energy    TOTEN  =        -7.85240734 eV

  energy without entropy =       -7.85233213  energy(sigma->0) =       -7.85236974


--------------------------------------------------------------------------------------------------------




--------------------------------------- Iteration      1(  10)  ---------------------------------------


    POTLOK:  cpu time      0.0063: real time      0.0067
    SETDIJ:  cpu time      0.3947: real time      0.3946
     EDDAV:  cpu time      1.1460: real time      1.1456
       DOS:  cpu time      0.0006: real time      0.0006
    CHARGE:  cpu time      0.0591: real time      0.0591
    MIXING:  cpu time      0.0007: real time      0.0007
    --------------------------------------------
      LOOP:  cpu time      1.6073: real time      1.6073

 eigenvalue-minimisations  :  3576
 total energy-change (2. order) : 0.4255066E-03  (-0.6550323E-04)
 number of electron      17.9999993 magnetization       0.0025335
 augmentation part        6.2191367 magnetization       0.0027336

 Broyden mixing:
  rms(total) = 0.45176E-02    rms(broyden)= 0.45176E-02
  rms(prec ) = 0.82905E-02
  weight for this iteration     100.00

 eigenvalues of (default mixing * dielectric matrix)
  average eigenvalue GAMMA=   1.2835
  2.6507  1.4653  0.8800  0.7750  0.6466

 Free energy of the ion-electron system (eV)
  ---------------------------------------------------
  alpha Z        PSCENC =        37.49967080
  Ewald energy   TEWEN  =     -1174.26048609
  -Hartree energ DENC   =      -574.30095238
  -exchange      EXHF   =         0.00000000
  -V(xc)+E(xc)   XCENC  =        30.04757146
  PAW double counting   =      1322.75457212    -1292.62435418
  entropy T*S    EENTRO =        -0.00007731
  eigenvalues    EBANDS =      -103.91365388
  atomic energy  EATOM  =      1746.94572762
  Solvation  Ediel_sol  =         0.00000000
  ---------------------------------------------------
  free energy    TOTEN  =        -7.85198183 eV

  energy without entropy =       -7.85190452  energy(sigma->0) =       -7.85194318


--------------------------------------------------------------------------------------------------------




--------------------------------------- Iteration      1(  11)  ---------------------------------------


    POTLOK:  cpu time      0.0061: real time      0.0071
    SETDIJ:  cpu time      0.3877: real time      0.3876
     EDDAV:  cpu time      1.2259: real time      1.2256
       DOS:  cpu time      0.0006: real time      0.0006
    CHARGE:  cpu time      0.0594: real time      0.0594
    MIXING:  cpu time      0.0008: real time      0.0008
    --------------------------------------------
      LOOP:  cpu time      1.6804: real time      1.6810

 eigenvalue-minimisations  :  3872
 total energy-change (2. order) : 0.1573169E-04  (-0.9720866E-05)
 number of electron      17.9999993 magnetization      -0.0007543
 augmentation part        6.2195982 magnetization      -0.0009758

 Broyden mixing:
  rms(total) = 0.21964E-02    rms(broyden)= 0.21964E-02
  rms(prec ) = 0.46443E-02
  weight for this iteration     100.00

 eigenvalues of (default mixing * dielectric matrix)
  average eigenvalue GAMMA=   1.3170
  2.6766  1.7889  1.2166  0.8001  0.7846  0.6355

 Free energy of the ion-electron system (eV)
  ---------------------------------------------------
  alpha Z        PSCENC =        37.49967080
  Ewald energy   TEWEN  =     -1174.26048609
  -Hartree energ DENC   =      -574.28404557
  -exchange      EXHF   =         0.00000000
  -V(xc)+E(xc)   XCENC  =        30.04738718
  PAW double counting   =      1322.20389020    -1292.05266309
  entropy T*S    EENTRO =        -0.00007733
  eigenvalues    EBANDS =      -103.95136983
  atomic energy  EATOM  =      1746.94572762
  Solvation  Ediel_sol  =         0.00000000
  ---------------------------------------------------
  free energy    TOTEN  =        -7.85196610 eV

  energy without entropy =       -7.85188877  energy(sigma->0) =       -7.85192744


--------------------------------------------------------------------------------------------------------




--------------------------------------- Iteration      1(  12)  ---------------------------------------


    POTLOK:  cpu time      0.0059: real time      0.0070
    SETDIJ:  cpu time      0.3871: real time      0.3869
     EDDAV:  cpu time      1.1322: real time      1.1319
       DOS:  cpu time      0.0006: real time      0.0006
    CHARGE:  cpu time      0.0592: real time      0.0591
    MIXING:  cpu time      0.0008: real time      0.0008
    --------------------------------------------
      LOOP:  cpu time      1.5857: real time      1.5863

 eigenvalue-minimisations  :  3504
 total energy-change (2. order) :-0.1754514E-04  (-0.3388337E-05)
 number of electron      17.9999993 magnetization      -0.0004190
 augmentation part        6.2196853 magnetization      -0.0003188

 Broyden mixing:
  rms(total) = 0.96677E-03    rms(broyden)= 0.96677E-03
  rms(prec ) = 0.22855E-02
  weight for this iteration     100.00

 eigenvalues of (default mixing * dielectric matrix)
  average eigenvalue GAMMA=   1.3555
  2.7648  2.3058  1.3046  0.9402  0.7714  0.7714  0.6301

 Free energy of the ion-electron system (eV)
  ---------------------------------------------------
  alpha Z        PSCENC =        37.49967080
  Ewald energy   TEWEN  =     -1174.26048609
  -Hartree energ DENC   =      -574.31047515
  -exchange      EXHF   =         0.00000000
  -V(xc)+E(xc)   XCENC  =        30.04841903
  PAW double counting   =      1321.80765260    -1291.64295841
  entropy T*S    EENTRO =        -0.00007733
  eigenvalues    EBANDS =      -103.93945673
  atomic energy  EATOM  =      1746.94572762
  Solvation  Ediel_sol  =         0.00000000
  ---------------------------------------------------
  free energy    TOTEN  =        -7.85198365 eV

  energy without entropy =       -7.85190632  energy(sigma->0) =       -7.85194498


--------------------------------------------------------------------------------------------------------




--------------------------------------- Iteration      1(  13)  ---------------------------------------


    POTLOK:  cpu time      0.0059: real time      0.0072
    SETDIJ:  cpu time      0.3900: real time      0.3899
     EDDAV:  cpu time      1.1686: real time      1.1684
       DOS:  cpu time      0.0007: real time      0.0007
    CHARGE:  cpu time      0.0608: real time      0.0607
    MIXING:  cpu time      0.0013: real time      0.0013
    --------------------------------------------
      LOOP:  cpu time      1.6272: real time      1.6281

 eigenvalue-minimisations  :  3616
 total energy-change (2. order) :-0.5492611E-05  (-0.2006569E-05)
 number of electron      17.9999993 magnetization      -0.0000038
 augmentation part        6.2195901 magnetization      -0.0000381

 Broyden mixing:
  rms(total) = 0.44306E-03    rms(broyden)= 0.44306E-03
  rms(prec ) = 0.62623E-03
  weight for this iteration     100.00

 eigenvalues of (default mixing * dielectric matrix)
  average eigenvalue GAMMA=   1.3922
  3.0862  2.5421  1.3472  1.2481  0.8239  0.7603  0.6264  0.7038

 Free energy of the ion-electron system (eV)
  ---------------------------------------------------
  alpha Z        PSCENC =        37.49967080
  Ewald energy   TEWEN  =     -1174.26048609
  -Hartree energ DENC   =      -574.35706806
  -exchange      EXHF   =         0.00000000
  -V(xc)+E(xc)   XCENC  =        30.05022236
  PAW double counting   =      1321.57274026    -1291.40126505
  entropy T*S    EENTRO =        -0.00007733
  eigenvalues    EBANDS =      -103.90145365
  atomic energy  EATOM  =      1746.94572762
  Solvation  Ediel_sol  =         0.00000000
  ---------------------------------------------------
  free energy    TOTEN  =        -7.85198914 eV

  energy without entropy =       -7.85191181  energy(sigma->0) =       -7.85195048


--------------------------------------------------------------------------------------------------------




--------------------------------------- Iteration      1(  14)  ---------------------------------------


    POTLOK:  cpu time      0.0071: real time      0.0074
    SETDIJ:  cpu time      0.4013: real time      0.4012
     EDDAV:  cpu time      1.1069: real time      1.1066
       DOS:  cpu time      0.0006: real time      0.0006
    CHARGE:  cpu time      0.0593: real time      0.0592
    MIXING:  cpu time      0.0009: real time      0.0009
    --------------------------------------------
      LOOP:  cpu time      1.5760: real time      1.5759

 eigenvalue-minimisations  :  3328
 total energy-change (2. order) : 0.1963534E-05  (-0.9016683E-07)
 number of electron      17.9999993 magnetization       0.0000015
 augmentation part        6.2195787 magnetization      -0.0000014

 Broyden mixing:
  rms(total) = 0.14264E-03    rms(broyden)= 0.14264E-03
  rms(prec ) = 0.26109E-03
  weight for this iteration     100.00

 eigenvalues of (default mixing * dielectric matrix)
  average eigenvalue GAMMA=   1.3536
  3.1697  2.5735  1.4765  1.2478  0.8867  0.8045  0.7466  0.6267  0.6503

 Free energy of the ion-electron system (eV)
  ---------------------------------------------------
  alpha Z        PSCENC =        37.49967080
  Ewald energy   TEWEN  =     -1174.26048609
  -Hartree energ DENC   =      -574.36232290
  -exchange      EXHF   =         0.00000000
  -V(xc)+E(xc)   XCENC  =        30.05039336
  PAW double counting   =      1321.56160780    -1291.38949909
  entropy T*S    EENTRO =        -0.00007733
  eigenvalues    EBANDS =      -103.89700135
  atomic energy  EATOM  =      1746.94572762
  Solvation  Ediel_sol  =         0.00000000
  ---------------------------------------------------
  free energy    TOTEN  =        -7.85198718 eV

  energy without entropy =       -7.85190985  energy(sigma->0) =       -7.85194851


--------------------------------------------------------------------------------------------------------




--------------------------------------- Iteration      1(  15)  ---------------------------------------


    POTLOK:  cpu time      0.0063: real time      0.0067
    SETDIJ:  cpu time      0.3965: real time      0.3964
     EDDAV:  cpu time      0.8552: real time      0.8550
       DOS:  cpu time      0.0006: real time      0.0006
    --------------------------------------------
      LOOP:  cpu time      1.2586: real time      1.2587

 eigenvalue-minimisations  :  2304
 total energy-change (2. order) :-0.1776452E-06  (-0.1302011E-07)
 number of electron      17.9999993 magnetization       0.0000015
 augmentation part        6.2195787 magnetization      -0.0000014

 Free energy of the ion-electron system (eV)
  ---------------------------------------------------
  alpha Z        PSCENC =        37.49967080
  Ewald energy   TEWEN  =     -1174.26048609
  -Hartree energ DENC   =      -574.36284285
  -exchange      EXHF   =         0.00000000
  -V(xc)+E(xc)   XCENC  =        30.05037100
  PAW double counting   =      1321.56985590    -1291.39789296
  entropy T*S    EENTRO =        -0.00007733
  eigenvalues    EBANDS =      -103.89631345
  atomic energy  EATOM  =      1746.94572762
  Solvation  Ediel_sol  =         0.00000000
  ---------------------------------------------------
  free energy    TOTEN  =        -7.85198735 eV

  energy without entropy =       -7.85191003  energy(sigma->0) =       -7.85194869


--------------------------------------------------------------------------------------------------------




 average (electrostatic) potential at core
  the test charge radii are     1.0774  1.0621
  (the norm of the test charge is              1.0000)
       1 -96.8929       2 -49.8656
 
 
 
 E-fermi :   4.3078     XC(G=0):  -8.9967     alpha+bet : -9.8926

 Fermi energy:         4.3078140494

 spin component 1

 k-point     1 :       0.0000    0.0000    0.0000
  band No.  band energies     occupation 
      1     -10.0942      1.00000
      2     -10.0942      1.00000
      3     -10.0942      1.00000
      4      -9.9780      1.00000
      5      -9.9780      1.00000
      6      -7.4011      1.00000
      7       4.0239      1.00000
      8       4.2926      0.66690
      9       4.2926      0.66690
     10       4.2926      0.66689
     11       8.1914      0.00000
     12       8.1914      0.00000
     13       8.1914      0.00000
     14      11.7437      0.00000
     15      13.9040      0.00000
     16      13.9040      0.00000

 k-point     2 :       0.1000    0.0000    0.0000
  band No.  band energies     occupation 
      1     -10.1056      1.00000
      2     -10.0906      1.00000
      3     -10.0906      1.00000
      4      -9.9781      1.00000
      5      -9.9781      1.00000
      6      -7.3015      1.00000
      7       2.7745      1.00000
      8       4.1693      0.99996
      9       4.1693      0.99996
     10       5.1933      0.00000
     11       8.2487      0.00000
     12       8.3747      0.00000
     13       8.3747      0.00000
     14      12.3236      0.00000
     15      13.2218      0.00000
     16      13.2218      0.00000

 k-point     3 :       0.2000    0.0000    0.0000
  band No.  band energies     occupation 
      1     -10.1344      1.00000
      2     -10.0820      1.00000
      3     -10.0820      1.00000
      4      -9.9777      1.00000
      5      -9.9777      1.00000
      6      -7.0188      1.00000
      7       1.3359      1.00000
      8       3.8911      1.00000
      9       3.8911      1.00000
     10       5.5339      0.00000
     11       8.7450      0.00000
     12       8.7450      0.00000
     13       8.8561      0.00000
     14      12.7732      0.00000
     15      12.7732      0.00000
     16      12.8075      0.00000

 k-point     4 :       0.3000    0.0000    0.0000
  band No.  band energies     occupation 
      1     -10.1680      1.00000
      2     -10.0729      1.00000
      3     -10.0729      1.00000
      4      -9.9756      1.00000
      5      -9.9756      1.00000
      6      -6.6076      1.00000
      7       0.0230      1.00000
      8       3.6066      1.00000
      9       3.6066      1.00000
     10       5.4305      0.00000
     11       8.9677      0.00000
     12       8.9677      0.00000
     13       9.9858      0.00000
     14      12.4586      0.00000
     15      13.0540      0.00000
     16      13.0540      0.00000

 k-point     5 :       0.4000    0.0000    0.0000
  band No.  band energies     occupation 
      1     -10.1937      1.00000
      2     -10.0670      1.00000
      3     -10.0670      1.00000
      4      -9.9723      1.00000
      5      -9.9722      1.00000
      6      -6.1923      1.00000
      7      -0.9600      1.00000
      8       3.4082      1.00000
      9       3.4082      1.00000
     10       5.2825      0.00000
     11       8.9788      0.00000
     12       8.9788      0.00000
     13      10.9209      0.00000
     14      12.6206      0.00000
     15      14.0204      0.00000
     16      14.0204      0.00000

 k-point     6 :       0.5000    0.0000    0.0000
  band No.  band energies     occupation 
      1     -10.2033      1.00000
      2     -10.0652      1.00000
      3     -10.0652      1.00000
      4      -9.9706      1.00000
      5      -9.9706      1.00000
      6      -6.0012      1.00000
      7      -1.3444      1.00000
      8       3.3381      1.00000
      9       3.3381      1.00000
     10       5.2246      0.00000
     11       8.9546      0.00000
     12       8.9546      0.00000
     13      11.1174      0.00000
     14      13.2246      0.00000
     15      14.9576      0.00000
     16      14.9576      0.00000

 k-point     7 :       0.1000    0.1000    0.0000
  band No.  band energies     occupation 
      1     -10.1132      1.00000
      2     -10.0873      1.00000
      3     -10.0873      1.00000
      4      -9.9806      1.00000
      5      -9.9760      1.00000
      6      -7.2685      1.00000
      7       2.6894      1.00000
      8       3.9443      1.00000
      9       3.9443      1.00000
     10       5.6190      0.00000
     11       7.7231      0.00000
     12       8.6864      0.00000
     13       8.6864      0.00000
     14      12.2707      0.00000
     15      12.6157      0.00000
     16      14.0115      0.00000

 k-point     8 :       0.2000    0.1000    0.0000
  band No.  band energies     occupation 
      1     -10.1368      1.00000
      2     -10.0801      1.00000
      3     -10.0785      1.00000
      4      -9.9829      1.00000
      5      -9.9741      1.00000
      6      -7.0468      1.00000
      7       1.6288      1.00000
      8       3.6186      1.00000
      9       3.6598      1.00000
     10       6.1374      0.00000
     11       7.6684      0.00000
     12       9.1680      0.00000
     13       9.1829      0.00000
     14      11.7813      0.00000
     15      13.4205      0.00000
     16      13.6651      0.00000

 k-point     9 :       0.3000    0.1000    0.0000
  band No.  band energies     occupation 
      1     -10.1666      1.00000
      2     -10.0724      1.00000
      3     -10.0689      1.00000
      4      -9.9829      1.00000
      5      -9.9718      1.00000
      6      -6.6759      1.00000
      7       0.3834      1.00000
      8       3.2934      1.00000
      9       3.3375      1.00000
     10       6.1609      0.00000
     11       8.2035      0.00000
     12       9.4701      0.00000
     13       9.6323      0.00000
     14      12.0825      0.00000
     15      13.4171      0.00000
     16      13.7221      0.00000

 k-point    10 :       0.4000    0.1000    0.0000
  band No.  band energies     occupation 
      1     -10.1925      1.00000
      2     -10.0663      1.00000
      3     -10.0624      1.00000
      4      -9.9796      1.00000
      5      -9.9697      1.00000
      6      -6.2504      1.00000
      7      -0.6746      1.00000
      8       2.9455      1.00000
      9       3.1794      1.00000
     10       6.0146      0.00000
     11       8.5561      0.00000
     12       9.4519      0.00000
     13      10.3883      0.00000
     14      12.6964      0.00000
     15      13.6344      0.00000
     16      14.4888      0.00000

 k-point    11 :       0.5000    0.1000    0.0000
  band No.  band energies     occupation 
      1     -10.2060      1.00000
      2     -10.0633      1.00000
      3     -10.0604      1.00000
      4      -9.9750      1.00000
      5      -9.9699      1.00000
      6      -5.9633      1.00000
      7      -1.2620      1.00000
      8       2.7105      1.00000
      9       3.1742      1.00000
     10       5.9182      0.00000
     11       8.6467      0.00000
     12       9.3005      0.00000
     13      11.2141      0.00000
     14      13.0645      0.00000
     15      14.3917      0.00000
     16      14.9933      0.00000

 k-point    12 :      -0.4000    0.1000    0.0000
  band No.  band energies     occupation 
      1     -10.2025      1.00000
      2     -10.0633      1.00000
      3     -10.0622      1.00000
      4      -9.9735      1.00000
      5      -9.9723      1.00000
      6      -6.0287      1.00000
      7      -1.1342      1.00000
      8       2.6333      1.00000
      9       3.3197      1.00000
     10       5.9235      0.00000
     11       8.7761      0.00000
     12       9.1680      0.00000
     13      11.1150      0.00000
     14      13.1008      0.00000
     15      13.7365      0.00000
     16      14.8264      0.00000

 k-point    13 :      -0.3000    0.1000    0.0000
  band No.  band energies     occupation 
      1     -10.1830      1.00000
      2     -10.0683      1.00000
      3     -10.0663      1.00000
      4      -9.9783      1.00000
      5      -9.9726      1.00000
      6      -6.3903      1.00000
      7      -0.3560      1.00000
      8       2.7380      1.00000
      9       3.5851      1.00000
     10       6.0166      0.00000
     11       8.9275      0.00000
     12       9.0353      0.00000
     13      10.1402      0.00000
     14      12.6222      0.00000
     15      12.9943      0.00000
     16      14.4587      0.00000

 k-point    14 :      -0.2000    0.1000    0.0000
  band No.  band energies     occupation 
      1     -10.1536      1.00000
      2     -10.0777      1.00000
      3     -10.0730      1.00000
      4      -9.9808      1.00000
      5      -9.9745      1.00000
      6      -6.8131      1.00000
      7       0.7796      1.00000
      8       3.0428      1.00000
      9       3.9021      1.00000
     10       6.0820      0.00000
     11       8.6017      0.00000
     12       8.7721      0.00000
     13       9.4655      0.00000
     14      12.1604      0.00000
     15      12.9451      0.00000
     16      13.8462      0.00000

 k-point    15 :      -0.1000    0.1000    0.0000
  band No.  band energies     occupation 
      1     -10.1240      1.00000
      2     -10.0867      1.00000
      3     -10.0823      1.00000
      4      -9.9802      1.00000
      5      -9.9762      1.00000
      6      -7.1408      1.00000
      7       1.9576      1.00000
      8       3.5712      1.00000
      9       4.1473      1.00000
     10       5.7809      0.00000
     11       8.1487      0.00000
     12       8.4443      0.00000
     13       9.0547      0.00000
     14      12.4317      0.00000
     15      12.8990      0.00000
     16      13.1678      0.00000

 k-point    16 :       0.2000    0.2000    0.0000
  band No.  band energies     occupation 
      1     -10.1586      1.00000
      2     -10.0691      1.00000
      3     -10.0691      1.00000
      4      -9.9884      1.00000
      5      -9.9708      1.00000
      6      -6.8925      1.00000
      7       1.2958      1.00000
      8       3.2552      1.00000
      9       3.2552      1.00000
     10       6.7458      0.00000
     11       6.9579      0.00000
     12       9.8143      0.00000
     13       9.8143      0.00000
     14      11.0770      0.00000
     15      14.2579      0.00000
     16      14.3282      0.00000

 k-point    17 :       0.3000    0.2000    0.0000
  band No.  band energies     occupation 
      1     -10.1843      1.00000
      2     -10.0600      1.00000
      3     -10.0583      1.00000
      4      -9.9919      1.00000
      5      -9.9679      1.00000
      6      -6.5816      1.00000
      7       0.4488      1.00000
      8       2.8302      1.00000
      9       2.9523      1.00000
     10       6.7554      0.00000
     11       7.2051      0.00000
     12       9.9226      0.00000
     13      10.3229      0.00000
     14      11.6422      0.00000
     15      14.4324      0.00000
     16      14.8707      0.00000

 k-point    18 :       0.4000    0.2000    0.0000
  band No.  band energies     occupation 
      1     -10.2053      1.00000
      2     -10.0557      1.00000
      3     -10.0507      1.00000
      4      -9.9909      1.00000
      5      -9.9662      1.00000
      6      -6.1854      1.00000
      7      -0.4590      1.00000
      8       2.3108      1.00000
      9       2.7904      1.00000
     10       6.6510      0.00000
     11       7.9845      0.00000
     12       9.7618      0.00000
     13      10.4118      0.00000
     14      12.9029      0.00000
     15      14.7730      0.00000
     16      15.0049      0.00000

 k-point    19 :       0.5000    0.2000    0.0000
  band No.  band energies     occupation 
      1     -10.2164      1.00000
      2     -10.0553      1.00000
      3     -10.0480      1.00000
      4      -9.9858      1.00000
      5      -9.9676      1.00000
      6      -5.8551      1.00000
      7      -1.0963      1.00000
      8       1.8865      1.00000
      9       2.8008      1.00000
     10       6.5931      0.00000
     11       8.5599      0.00000
     12      10.2099      0.00000
     13      10.3141      0.00000
     14      13.2570      0.00000
     15      14.9993      0.00000
     16      15.1169      0.00000

 k-point    20 :      -0.4000    0.2000    0.0000
  band No.  band energies     occupation 
      1     -10.2149      1.00000
      2     -10.0570      1.00000
      3     -10.0501      1.00000
      4      -9.9796      1.00000
      5      -9.9727      1.00000
      6      -5.8033      1.00000
      7      -1.1830      1.00000
      8       1.6652      1.00000
      9       2.9801      1.00000
     10       6.6379      0.00000
     11       8.7436      0.00000
     12       9.9376      0.00000
     13      11.0239      0.00000
     14      12.8431      0.00000
     15      13.6975      0.00000
     16      14.7787      0.00000

 k-point    21 :      -0.3000    0.2000    0.0000
  band No.  band energies     occupation 
      1     -10.2012      1.00000
      2     -10.0600      1.00000
      3     -10.0570      1.00000
      4      -9.9787      1.00000
      5      -9.9752      1.00000
      6      -6.0717      1.00000
      7      -0.6908      1.00000
      8       1.7215      1.00000
      9       3.2906      1.00000
     10       6.7380      0.00000
     11       8.9477      0.00000
     12       9.6203      0.00000
     13      10.0483      0.00000
     14      12.5300      0.00000
     15      13.8424      0.00000
     16      15.2232      0.00000

 k-point    22 :      -0.2000    0.2000    0.0000
  band No.  band energies     occupation 
      1     -10.1788      1.00000
      2     -10.0677      1.00000
      3     -10.0650      1.00000
      4      -9.9817      1.00000
      5      -9.9736      1.00000
      6      -6.4673      1.00000
      7       0.0731      1.00000
      8       2.1629      1.00000
      9       3.6477      1.00000
     10       6.6688      0.00000
     11       8.8828      0.00000
     12       9.1774      0.00000
     13       9.3593      0.00000
     14      12.0125      0.00000
     15      14.0277      0.00000
     16      14.8022      0.00000

 k-point    23 :       0.3000    0.3000    0.0000
  band No.  band energies     occupation 
      1     -10.2085      1.00000
      2     -10.0460      1.00000
      3     -10.0460      1.00000
      4      -9.9993      1.00000
      5      -9.9643      1.00000
      6      -6.3404      1.00000
      7       0.0180      1.00000
      8       2.6177      1.00000
      9       2.6177      1.00000
     10       6.3064      0.00000
     11       6.9833      0.00000
     12      11.1818      0.00000
     13      11.1818      0.00000
     14      11.2811      0.00000
     15      14.8269      0.00000
     16      16.0626      0.00000

 k-point    24 :       0.4000    0.3000    0.0000
  band No.  band energies     occupation 
      1     -10.2271      1.00000
      2     -10.0392      1.00000
      3     -10.0371      1.00000
      4     -10.0018      1.00000
      5      -9.9622      1.00000
      6      -6.0071      1.00000
      7      -0.6023      1.00000
      8       2.1684      1.00000
      9       2.4256      1.00000
     10       6.3524      0.00000
     11       7.0658      0.00000
     12      10.8663      0.00000
     13      11.5924      0.00000
     14      12.8139      0.00000
     15      15.2905      0.00000
     16      16.2359      0.00000

 k-point    25 :       0.5000    0.3000    0.0000
  band No.  band energies     occupation 
      1     -10.2344      1.00000
      2     -10.0409      1.00000
      3     -10.0337      1.00000
      4      -9.9981      1.00000
      5      -9.9636      1.00000
      6      -5.6989      1.00000
      7      -1.0888      1.00000
      8       1.5679      1.00000
      9       2.4146      1.00000
     10       6.4320      0.00000
     11       7.9449      0.00000
     12      10.6479      0.00000
     13      11.4436      0.00000
     14      13.4192      0.00000
     15      15.3423      0.00000
     16      16.0199      0.00000

 k-point    26 :      -0.4000    0.3000    0.0000
  band No.  band energies     occupation 
      1     -10.2305      1.00000
      2     -10.0469      1.00000
      3     -10.0362      1.00000
      4      -9.9906      1.00000
      5      -9.9690      1.00000
      6      -5.5875      1.00000
      7      -1.2304      1.00000
      8       1.1538      1.00000
      9       2.5860      1.00000
     10       6.5620      0.00000
     11       9.0112      0.00000
     12      10.8193      0.00000
     13      11.0188      0.00000
     14      12.1806      0.00000
     15      13.9665      0.00000
     16      16.4408      0.00000

 k-point    27 :      -0.3000    0.3000    0.0000
  band No.  band energies     occupation 
      1     -10.2180      1.00000
      2     -10.0538      1.00000
      3     -10.0446      1.00000
      4      -9.9821      1.00000
      5      -9.9754      1.00000
      6      -5.7511      1.00000
      7      -1.0189      1.00000
      8       1.1538      1.00000
      9       2.9059      1.00000
     10       6.7719      0.00000
     11       9.3684      0.00000
     12      10.3928      0.00000
     13      10.4296      0.00000
[...]
  206          m_sumb_d                              0.000010                          1   4
  207        strelo                                0.000609                            1   3
  208          m_sumb_d                              0.000042                          2   4
  209        strenl                                1.194840                            1   3
  210          spher                                 0.374706                         19   4
  211          phase                                 0.014903                        423   4
  212          proj1_acc                             0.247730                       3384   4
  213          m_sumb_d                              0.000031                          1   4
  214        fft3d_mpi                             0.002972                           22   3
  215          fftbrc_mpi                            0.002318                         22   4
  216            fftbas_plan_mpi                       0.002308                       22   5
  217              map_forward                           0.000814                     20   6
  218                map_gather                            0.000176                   10   7
  219                m_alltoallv_z                         0.000135                   10   7
  220                map_scatter                           0.000356                   10   7
  221              map_backward                          0.000899                     24   6
  222                map_gather                            0.000223                   12   7
  223                m_alltoallv_z                         0.000140                   12   7
  224                map_scatter                           0.000386                   12   7
  225        m_sumb_d                              0.000024                            5   3
  226        forhar                                0.000566                            2   3
  227          m_sumb_d                              0.000021                          2   4
  228        strehar                               0.000472                            1   3
  229          m_sumb_d                              0.000009                          1   4
  230        chggra                                0.000991                            1   3
  231          fft3d_mpi                             0.000421                          3   4
  232            fftbrc_mpi                            0.000328                        3   5
  233              fftbas_plan_mpi                       0.000327                      3   6
  234                map_forward                           0.000173                    4   7
  235                  map_gather                            0.000035                  2   8
  236                  m_alltoallv_z                         0.000027                  2   8
  237                  map_scatter                           0.000084                  2   8
  238                map_backward                          0.000072                    2   7
  239                  map_gather                            0.000018                  1   8
  240                  m_alltoallv_z                         0.000011                  1   8
  241                  map_scatter                           0.000030                  1   8
  242          m_sumb_d                              0.000012                          2   4
  243          pothar                                0.000071                          1   4
  244            m_sumb_d                              0.000006                        1   5
  245        brmix                                 0.000962                            1   3
  246          m_sumb_d                              0.000023                          6   4
  247          brpre                                 0.000011                          2   4
  248          setg0                                 0.000180                          1   4
  249          broyd                                 0.000460                          1   4
  250            m_sumb_d                              0.000059                       17   5
  251            brsav                                 0.000041                       16   5
  252            brget                                 0.000101                       59   5
  253        m_bcast_d                             0.000016                            2   3
  254      potlok                                0.011592                              2   2
  255        fft3d_mpi                             0.007884                           36   3
  256          fftbrc_mpi                            0.006393                         36   4
  257            fftbas_plan_mpi                       0.006371                       36   5
  258              map_forward                           0.002403                     40   6
  259                map_gather                            0.000620                   24   7
  260                m_alltoallv_z                         0.000860                   24   7
  261                map_scatter                           0.000747                   24   7
  262              map_backward                          0.001881                     32   6
  263                map_gather                            0.000543                   16   7
  264                m_alltoallv_z                         0.000609                   16   7
  265                map_scatter                           0.000571                   16   7
  266              dfftw_execute                         0.001304                     30   6
  267        m_sumb_d                              0.000025                            5   3
  268        pothar                                0.000765                            2   3
  269          m_sumb_d                              0.000011                          2   4
  270        m_bcast_d                             0.000283                            4   3
  271      potlok_metagga                        0.000000                              1   2
  272      set_dd_magatom                        0.000004                              1   2
  273      set_dd_paw                            0.397051                              1   2
  274        set_rsgf_all                          0.000001                            1   3
  275        m_sumb_d                              0.397029                            7   3
  276      augmentation_charge                   0.002566                              1   2
  277        fft3d_mpi                             0.000905                            2   3
  278          fftbrc_mpi                            0.000816                          2   4
  279            fftbas_plan_mpi                       0.000814                        2   5
  280              dfftw_execute                         0.000311                      6   6
  281              map_backward                          0.000484                      4   6
  282                map_gather                            0.000125                    2   7
  283                m_alltoallv_z                         0.000259                    2   7
  284                map_scatter                           0.000097                    2   7
  285      densta                                0.000753                              1   2
  286        m_sumb_d                              0.000313                           32   3
 
 Flat profile
 ============
 
             routine name                   CPU           calls
 ---------------------------------------------------------------
 m_sumb_d                                7.192855       33422
 total_time                              5.069017           1
 lapack                                  4.413725        9539
 eddav                                   3.683348          15
 init_acc                                2.364564           1
 redis_pw                                1.371250       54602
 m_alltoall_d                            1.209766      141066
 orth1                                   0.657520       28711
 strenl                                  0.557470           1
 redis_proj                              0.468109       68134
 hamiltmu                                0.438347        9539
 eccp                                    0.427553        5640
 spher                                   0.399471          20
 soft_charge                             0.343575          11
 acc_cufft_makeplan                      0.330269          19
 overl1                                  0.300725       19078
 fft3d                                   0.297048       41258
 w1_copy                                 0.290086       57234
 ggemm                                   0.273134       12359
 overl                                   0.264019       32610
 proj1_acc                               0.253558        3760
 fftwav                                  0.236895       22180
 m_bcast_z                               0.224046       11043
 vnlac0_acc                              0.223074       19078
 setup_precond                           0.205076        5640
 projmu_acc                              0.187595        6719
 m_bcast_d                               0.140568       19107
 newband                                 0.126201       10949
 fornl                                   0.116587           1
 vhamil                                  0.090890       19078
 kinhamil                                0.090576       19078
 fftext_mpi                              0.081390       19078
 lincom                                  0.077204        1504
 pw_charge                               0.076102        3102
 apply_precond                           0.072194       13438
 elmin                                   0.066288           1
 acc_init_cublas                         0.061643           1
 depsum                                  0.055714          11
 setdij_                                 0.051561          39
 wfinit                                  0.050887           1
 potlok                                  0.048731          13
 m_alltoallv_z                           0.047996         457
 proall                                  0.043215           1
 phase                                   0.035247        1928
 choleski                                0.034840          94
 fftwav_mpi                              0.032632       22180
 proj                                    0.031060          47
 acc_init_cusolver                       0.030064           1
 set_charge                              0.028764          11
 fft3d_mpi                               0.026526       19487
 sphpro_fast                             0.020645           2
 augmentation_charge                     0.019394          12
 orthch                                  0.018738           1
 map_scatter                             0.014910         457
 map_gather                              0.011021         457
 fftbas_plan_mpi                         0.010075         409
 force_and_stress                        0.008741           1
 dfftw_execute                           0.008528         216
 w1_projall                              0.005742        6719
 densta                                  0.005351          16
 inisym                                  0.004704           1
 brmix                                   0.003191          11
 truncate_high_frequency_w1              0.002457       24718
 forloc                                  0.002418           1
 setg0                                   0.002345          13
 map_forward                             0.002307         392
 map_backward                            0.002167         426
 pothar                                  0.001596          14
 broyd                                   0.001387          11
 brget                                   0.000762         368
 stufak                                  0.000614           1
 strelo                                  0.000567           1
 forhar                                  0.000545           2
 set_dd_paw                              0.000516          13
 chggra                                  0.000487           1
 strehar                                 0.000463           1
 brsav                                   0.000362         112
 fftbrc_mpi                              0.000240         409
 fewald                                  0.000240           1
 strkin                                  0.000162           1
 fft_gq                                  0.000130          11
 brpre                                   0.000129          22
 rsp                                     0.000093           1
 brgrid                                  0.000067           1
 vectorpot                               0.000063          12
 set_dd_magatom                          0.000055          13
 crpa_reader                             0.000023           1
 acc_cufft_makeplans                     0.000021           3
 posmap                                  0.000012           2
 fordep                                  0.000011           1
 rcp                                     0.000010           1
 set_rsgf_all                            0.000006          13
 rotate_active_occupied_orbital          0.000001           1
 potlok_metagga                          0.000001          12
 redis_pw_over_bands                     0.000000           1
 ---------------------------------------------------------------
  summed up times     33.35027122497559     
 
 Accumulative profile
 ====================
 
             routine name                   CPU           calls
 ---------------------------------------------------------------
 total_time                             33.350271           1
 elmin                                  22.729880           1
 eddav                                  17.550991          15
 m_sumb_d                                7.192855       33422
 set_dd_paw                              5.142333          13
 lapack                                  4.413725        9539
 init_acc                                2.364564           1
 redis_pw                                1.943625       54602
 force_and_stress                        1.810320           1
 hamiltmu                                1.361910        9539
 m_alltoall_d                            1.209766      141066
 strenl                                  1.194840           1
 newband                                 1.174824       10949
 redis_proj                              1.105500       68134
 orth1                                   0.657520       28711
 set_charge                              0.655861          11
 soft_charge                             0.534849          11
 fftwav_mpi                              0.436832       22180
 eccp                                    0.427553        5640
 fftwav                                  0.404199       22180
 spher                                   0.399471          20
 acc_cufft_makeplans                     0.330290           3
 acc_cufft_makeplan                      0.330269          19
 kinhamil                                0.308874       19078
 overl1                                  0.300725       19078
 fft3d                                   0.297048       41258
 w1_copy                                 0.290086       57234
 ggemm                                   0.273134       12359
 overl                                   0.264019       32610
 proj1_acc                               0.253558        3760
 fft3d_mpi                               0.253513       19487
 orthch                                  0.228624           1
 m_bcast_z                               0.224046       11043
 vnlac0_acc                              0.223074       19078
 fftext_mpi                              0.218298       19078
 setup_precond                           0.205076        5640
 w1_projall                              0.193337        6719
 projmu_acc                              0.187595        6719
 m_bcast_d                               0.140568       19107
 potlok                                  0.133677          13
 fornl                                   0.118263           1
 fftbrc_mpi                              0.097243         409
 fftbas_plan_mpi                         0.097003         409
 vhamil                                  0.090890       19078
 proall                                  0.081928           1
 wfinit                                  0.078646           1
 lincom                                  0.077204        1504
 pw_charge                               0.076102        3102
 apply_precond                           0.072194       13438
 acc_init_cublas                         0.061643           1
 depsum                                  0.056236          11
 setdij_                                 0.055474          39
 map_forward                             0.050580         392
 m_alltoallv_z                           0.047996         457
 proj                                    0.036888          47
 phase                                   0.035247        1928
 choleski                                0.034840          94
 augmentation_charge                     0.032810          12
 acc_init_cusolver                       0.030064           1
 map_backward                            0.027820         426
 sphpro_fast                             0.020973           2
 map_scatter                             0.014910         457
 map_gather                              0.011021         457
 brmix                                   0.008956          11
 dfftw_execute                           0.008528         216
 densta                                  0.008338          16
 fordep                                  0.008061           1
 fft_gq                                  0.007411          11
 inisym                                  0.004716           1
 broyd                                   0.002973          11
 forloc                                  0.002593           1
 truncate_high_frequency_w1              0.002457       24718
 setg0                                   0.002345          13
 pothar                                  0.001671          14
 chggra                                  0.000991           1
 brget                                   0.000762         368
 stufak                                  0.000614           1
 strelo                                  0.000609           1
 forhar                                  0.000566           2
 strehar                                 0.000472           1
 fewald                                  0.000375           1
 brsav                                   0.000362         112
 strkin                                  0.000172           1
 brpre                                   0.000129          22
 rsp                                     0.000093           1
 brgrid                                  0.000067           1
 vectorpot                               0.000063          12
 set_dd_magatom                          0.000055          13
 crpa_reader                             0.000023           1
 posmap                                  0.000012           2
 rcp                                     0.000010           1
 set_rsgf_all                            0.000006          13
 rotate_active_occupied_orbital          0.000001           1
 potlok_metagga                          0.000001          12
 redis_pw_over_bands                     0.000000           1
 ---------------------------------------------------------------
 
Profiling took   0.165898  0.059481  0.003499  0.003467 seconds
Profiling took   0.090681 seconds
