<?xml version="1.0" encoding="ISO-8859-1"?>
<modeling>
 <generator>
  <i name="program" type="string">vasp </i>
  <i name="version" type="string">6.4.2  </i>
  <i name="subversion" type="string">20Jul23 (build Jun  5 2025 09:16:51) complex                          parallel </i>
  <i name="platform" type="string">LinuxNV_CrayMPICH </i>
  <i name="date" type="string">2025 10 22 </i>
  <i name="time" type="string">18:30:53 </i>
 </generator>
 <incar>
  <i type="string" name="PREC">Accurate</i>
  <i type="string" name="ALGO">Normal</i>
  <i type="int" name="ISPIN">     2</i>
  <i type="int" name="NELM">   100</i>
  <i type="int" name="IBRION">    -1</i>
  <i name="EDIFF">      0.00000100</i>
  <i name="EDIFFG">     -0.01000000</i>
  <i type="int" name="NSW">     0</i>
  <i type="int" name="ISIF">     3</i>
  <i name="ENCUT">    520.00000000</i>
  <v name="MAGMOM">      0.60000000      0.60000000</v>
  <i type="logical" name="LREAL"> F  </i>
  <i type="int" name="ISMEAR">     0</i>
  <i name="SIGMA">      0.05000000</i>
  <i type="int" name="LMAXMIX">     4</i>
  <i type="logical" name="LWAVE"> T  </i>
  <i type="logical" name="LCHARG"> T  </i>
  <i type="logical" name="LVHAR"> T  </i>
  <i type="int" name="LORBIT">    11</i>
  <i type="logical" name="LASPH"> T  </i>
  <i type="logical" name="LAECHG"> T  </i>
 </incar>
 <primitive_cell>
  <structure name="primitive_cell" >
   <crystal>
    <varray name="basis" >
     <v>       3.73111929      -0.00000000       2.15416231 </v>
     <v>       1.24370677       3.51773231       2.15416231 </v>
     <v>      -0.00000000      -0.00000000       4.30832462 </v>
    </varray>
    <i name="volume">     56.54710041 </i>
    <varray name="rec_basis" >
     <v>       0.26801609      -0.09475804       0.00000000 </v>
     <v>       0.00000000       0.28427405       0.00000000 </v>
     <v>      -0.13400804      -0.09475800       0.23210879 </v>
    </varray>
   </crystal>
   <varray name="positions" >
    <v>       0.25000000       0.25000000       0.25000000 </v>
    <v>       0.00000000       0.00000000       0.00000000 </v>
   </varray>
  </structure>
  <varray name="primitive_index" >
   <v type="int" >        1 </v>
   <v type="int" >        2 </v>
  </varray>
 </primitive_cell>
 <kpoints>
  <generation param="Gamma">
   <v type="int" name="divisions">      10       10       10 </v>
   <v name="usershift">      0.00000000       0.00000000       0.00000000 </v>
   <v name="genvec1">      0.10000000      -0.00000000      -0.00000000 </v>
   <v name="genvec2">      0.00000000       0.10000000       0.00000000 </v>
   <v name="genvec3">      0.00000000      -0.00000000       0.10000000 </v>
   <v name="shift">      0.00000000       0.00000000       0.00000000 </v>
  </generation>
  <varray name="kpointlist" >
   <v>       0.00000000       0.00000000       0.00000000 </v>
   <v>       0.10000000       0.00000000       0.00000000 </v>
   <v>       0.20000000       0.00000000       0.00000000 </v>
   <v>       0.30000000       0.00000000       0.00000000 </v>
   <v>       0.40000000       0.00000000       0.00000000 </v>
   <v>       0.50000000       0.00000000       0.00000000 </v>
   <v>       0.10000000       0.10000000       0.00000000 </v>
   <v>       0.20000000       0.10000000       0.00000000 </v>
   <v>       0.30000000       0.10000000       0.00000000 </v>
   <v>       0.40000000       0.10000000       0.00000000 </v>
   <v>       0.50000000       0.10000000       0.00000000 </v>
   <v>      -0.40000000       0.10000000       0.00000000 </v>
   <v>      -0.30000000       0.10000000       0.00000000 </v>
   <v>      -0.20000000       0.10000000       0.00000000 </v>
   <v>      -0.10000000       0.10000000       0.00000000 </v>
   <v>       0.20000000       0.20000000       0.00000000 </v>
   <v>       0.30000000       0.20000000       0.00000000 </v>
   <v>       0.40000000       0.20000000       0.00000000 </v>
   <v>       0.50000000       0.20000000       0.00000000 </v>
   <v>      -0.40000000       0.20000000       0.00000000 </v>
   <v>      -0.30000000       0.20000000       0.00000000 </v>
   <v>      -0.20000000       0.20000000       0.00000000 </v>
   <v>       0.30000000       0.30000000       0.00000000 </v>
   <v>       0.40000000       0.30000000       0.00000000 </v>
   <v>       0.50000000       0.30000000       0.00000000 </v>
   <v>      -0.40000000       0.30000000       0.00000000 </v>
   <v>      -0.30000000       0.30000000       0.00000000 </v>
   <v>       0.40000000       0.40000000       0.00000000 </v>
   <v>       0.50000000       0.40000000       0.00000000 </v>
   <v>      -0.40000000       0.40000000       0.00000000 </v>
   <v>       0.50000000       0.50000000       0.00000000 </v>
   <v>       0.30000000       0.20000000       0.10000000 </v>
   <v>       0.40000000       0.20000000       0.10000000 </v>
   <v>       0.50000000       0.20000000       0.10000000 </v>
   <v>      -0.40000000       0.20000000       0.10000000 </v>
   <v>       0.40000000       0.30000000       0.10000000 </v>
   <v>       0.50000000       0.30000000       0.10000000 </v>
   <v>      -0.40000000       0.30000000       0.10000000 </v>
   <v>      -0.30000000       0.30000000       0.10000000 </v>
   <v>      -0.20000000       0.30000000       0.10000000 </v>
   <v>       0.50000000       0.40000000       0.10000000 </v>
   <v>      -0.40000000       0.40000000       0.10000000 </v>
   <v>      -0.30000000       0.40000000       0.10000000 </v>
   <v>      -0.40000000       0.50000000       0.10000000 </v>
   <v>      -0.40000000       0.40000000       0.20000000 </v>
   <v>      -0.30000000       0.40000000       0.20000000 </v>
   <v>      -0.30000000       0.50000000       0.20000000 </v>
  </varray>
  <varray name="weights" >
   <v>       0.00100000 </v>
   <v>       0.00800000 </v>
   <v>       0.00800000 </v>
   <v>       0.00800000 </v>
   <v>       0.00800000 </v>
   <v>       0.00400000 </v>
   <v>       0.00600000 </v>
   <v>       0.02400000 </v>
   <v>       0.02400000 </v>
   <v>       0.02400000 </v>
   <v>       0.02400000 </v>
   <v>       0.02400000 </v>
   <v>       0.02400000 </v>
   <v>       0.02400000 </v>
   <v>       0.01200000 </v>
   <v>       0.00600000 </v>
   <v>       0.02400000 </v>
   <v>       0.02400000 </v>
   <v>       0.02400000 </v>
   <v>       0.02400000 </v>
   <v>       0.02400000 </v>
   <v>       0.01200000 </v>
   <v>       0.00600000 </v>
   <v>       0.02400000 </v>
   <v>       0.02400000 </v>
   <v>       0.02400000 </v>
   <v>       0.01200000 </v>
   <v>       0.00600000 </v>
   <v>       0.02400000 </v>
   <v>       0.01200000 </v>
   <v>       0.00300000 </v>
   <v>       0.02400000 </v>
   <v>       0.04800000 </v>
   <v>       0.04800000 </v>
   <v>       0.02400000 </v>
   <v>       0.02400000 </v>
   <v>       0.04800000 </v>
   <v>       0.04800000 </v>
   <v>       0.04800000 </v>
   <v>       0.02400000 </v>
   <v>       0.02400000 </v>
   <v>       0.04800000 </v>
   <v>       0.02400000 </v>
   <v>       0.01200000 </v>
   <v>       0.02400000 </v>
   <v>       0.02400000 </v>
   <v>       0.01200000 </v>
  </varray>
 </kpoints>
 <parameters>
  <separator name="general" >
   <i type="string" name="SYSTEM">unknown system</i>
   <i type="logical" name="LCOMPAT"> F  </i>
  </separator>
  <separator name="electronic" >
   <i type="string" name="PREC">accura</i>
   <i name="ENMAX">    520.00000000</i>
   <i name="ENAUG">    462.75800000</i>
   <i name="EDIFF">      0.00000100</i>
   <i type="int" name="IALGO">    38</i>
   <i type="int" name="IWAVPR">    10</i>
   <i type="int" name="NBANDS">    16</i>
   <i type="int" name="NBANDSLOW">    -1</i>
   <i type="int" name="NBANDSHIGH">    -1</i>
   <i name="NELECT">     18.00000000</i>
   <i type="int" name="TURBO">     0</i>
   <i type="int" name="IRESTART">     0</i>
   <i type="int" name="NREBOOT">     0</i>
   <i type="int" name="NMIN">     0</i>
   <i name="EREF">      0.00000000</i>
   <separator name="electronic smearing" >
    <i type="int" name="ISMEAR">     0</i>
    <i name="SIGMA">      0.05000000</i>
    <i name="KSPACING">      0.50000000</i>
    <i type="logical" name="KGAMMA"> T  </i>
    <i type="logical" name="KBLOWUP"> T  </i>
   </separator>
   <separator name="electronic projectors" >
    <i type="logical" name="LREAL"> F  </i>
    <v name="ROPT">      0.00000000      0.00000000</v>
    <i type="int" name="LMAXPAW">  -100</i>
    <i type="int" name="LMAXMIX">     4</i>
    <i type="logical" name="NLSPLINE"> F  </i>
   </separator>
   <separator name="electronic startup" >
    <i type="int" name="ISTART">     0</i>
    <i type="int" name="ICHARG">     2</i>
    <i type="int" name="INIWAV">     1</i>
   </separator>
   <separator name="electronic spin" >
    <i type="int" name="ISPIN">     2</i>
    <i type="logical" name="LNONCOLLINEAR"> F  </i>
    <v name="MAGMOM">      0.60000000      0.60000000</v>
    <i name="NUPDOWN">     -1.00000000</i>
    <i type="logical" name="LSORBIT"> F  </i>
    <v name="SAXIS">      0.00000000      0.00000000      1.00000000</v>
    <i type="logical" name="LSPIRAL"> F  </i>
    <v name="QSPIRAL">      0.00000000      0.00000000      0.00000000</v>
    <i type="logical" name="LZEROZ"> F  </i>
   </separator>
   <separator name="electronic exchange-correlation" >
    <i type="logical" name="LASPH"> T  </i>
    <i type="logical" name="LMETAGGA"> F  </i>
   </separator>
   <separator name="electronic convergence" >
    <i type="int" name="NELM">   100</i>
    <i type="int" name="NELMDL">    -5</i>
    <i type="int" name="NELMIN">     2</i>
    <i name="ENINI">    520.00000000</i>
    <separator name="electronic convergence detail" >
     <i type="logical" name="LDIAG"> T  </i>
     <i type="logical" name="LSUBROT"> F  </i>
     <i name="WEIMIN">      0.00000000</i>
     <i name="EBREAK">      0.00000002</i>
     <i name="DEPER">      0.30000000</i>
     <i type="int" name="NRMM">     4</i>
     <i name="TIME">      0.40000000</i>
    </separator>
   </separator>
   <separator name="electronic mixer" >
    <i name="AMIX">      0.40000000</i>
    <i name="BMIX">      1.00000000</i>
    <i name="AMIN">      0.10000000</i>
    <i name="AMIX_MAG">      1.60000000</i>
    <i name="BMIX_MAG">      1.00000000</i>
    <separator name="electronic mixer details" >
     <i type="int" name="IMIX">     4</i>
     <i type="logical" name="MIXFIRST"> F  </i>
     <i type="int" name="MAXMIX">   -45</i>
     <i name="WC">    100.00000000</i>
     <i type="int" name="INIMIX">     1</i>
     <i type="int" name="MIXPRE">     1</i>
     <i type="int" name="MREMOVE">     5</i>
    </separator>
   </separator>
   <separator name="electronic dipolcorrection" >
    <i type="logical" name="LDIPOL"> F  </i>
    <i type="logical" name="LMONO"> F  </i>
    <i type="int" name="IDIPOL">     0</i>
    <i name="EPSILON">      1.00000000</i>
    <v name="DIPOL">   -100.00000000   -100.00000000   -100.00000000</v>
    <i name="EFIELD">      0.00000000</i>
   </separator>
  </separator>
  <separator name="grids" >
   <i type="int" name="NGX">    32</i>
   <i type="int" name="NGY">    32</i>
   <i type="int" name="NGZ">    32</i>
   <i type="int" name="NGXF">    64</i>
   <i type="int" name="NGYF">    64</i>
   <i type="int" name="NGZF">    64</i>
   <i type="logical" name="ADDGRID"> F  </i>
  </separator>
  <separator name="ionic" >
   <i type="int" name="NSW">     0</i>
   <i type="int" name="IBRION">    -1</i>
   <i type="int" name="MDALGO">     0</i>
   <i type="int" name="ISIF">     3</i>
   <i name="PSTRESS">      0.00000000</i>
   <i name="EDIFFG">     -0.01000000</i>
   <i type="int" name="NFREE">     0</i>
   <i name="POTIM">      0.50000000</i>
   <i name="SMASS">     -3.00000000</i>
   <i name="SCALEE">      1.00000000</i>
  </separator>
  <separator name="ionic md" >
   <i name="TEBEG">      0.00010000</i>
   <i name="TEEND">      0.00010000</i>
   <i type="int" name="NBLOCK">     1</i>
   <i type="int" name="KBLOCK">     1</i>
   <i type="int" name="NPACO">   256</i>
   <i name="APACO">     10.00000000</i>
  </separator>
  <separator name="symmetry" >
   <i type="int" name="ISYM">     2</i>
   <i name="SYMPREC">      0.00001000</i>
  </separator>
  <separator name="dos" >
   <i type="int" name="LORBIT">    11</i>
   <v name="RWIGS">     -1.00000000     -1.00000000</v>
   <i type="int" name="NEDOS">   301</i>
   <i name="EMIN">     10.00000000</i>
   <i name="EMAX">    -10.00000000</i>
   <i name="EFERMI">      0.00000000</i>
  </separator>
  <separator name="writing" >
   <i type="int" name="NWRITE">     2</i>
   <i type="logical" name="LWAVE"> T  </i>
   <i type="logical" name="LDOWNSAMPLE"> F  </i>
   <i type="logical" name="LCHARG"> T  </i>
   <i type="logical" name="LPARD"> F  </i>
   <i type="logical" name="LVTOT"> F  </i>
   <i type="logical" name="LVHAR"> T  </i>
   <i type="logical" name="LELF"> F  </i>
   <i type="logical" name="LOPTICS"> F  </i>
   <v name="STM">      0.00000000      0.00000000      0.00000000      0.00000000      0.00000000      0.00000000      0.00000000</v>
  </separator>
  <separator name="performance" >
   <i type="int" name="NPAR">     4</i>
   <i type="int" name="NSIM">     4</i>
   <i type="int" name="NBLK">    -1</i>
   <i type="logical" name="LPLANE"> T  </i>
   <i type="logical" name="LSCALAPACK"> T  </i>
   <i type="logical" name="LSCAAWARE"> F  </i>
   <i type="logical" name="LSCALU"> F  </i>
   <i type="logical" name="LASYNC"> F  </i>
   <i type="logical" name="LORBITALREAL"> F  </i>
  </separator>
  <separator name="miscellaneous" >
   <i type="int" name="IDIOT">     3</i>
   <i type="int" name="PHON_NSTRUCT">    -1</i>
   <i type="logical" name="LMUSIC"> F  </i>
   <v name="POMASS">    114.82000000     74.92200000</v>
   <v name="DARWINR">      0.00000000      0.00000000</v>
   <v name="DARWINV">      1.00000000      1.00000000</v>
   <i type="logical" name="LCORR"> T  </i>
  </separator>
  <i type="logical" name="GGA_COMPAT"> T  </i>
  <i type="logical" name="LBERRY"> F  </i>
  <i type="int" name="ICORELEVEL">     0</i>
  <i type="logical" name="LDAU"> F  </i>
  <i type="int" name="I_CONSTRAINED_M">     0</i>
  <separator name="electronic exchange-correlation" >
   <i type="string" name="GGA">--</i>
   <i type="int" name="VOSKOWN">     0</i>
   <i type="logical" name="LHFCALC"> F  </i>
   <i type="string" name="PRECFOCK"></i>
   <i type="logical" name="LSYMGRAD"> F  </i>
   <i type="logical" name="LHFONE"> F  </i>
   <i type="logical" name="LRHFCALC"> F  </i>
   <i type="logical" name="LTHOMAS"> F  </i>
   <i type="logical" name="LMODELHF"> F  </i>
   <i type="logical" name="LFOCKACE"> F  </i>
   <i name="ENCUT4O">     -1.00000000</i>
   <i type="int" name="EXXOEP">     0</i>
   <i type="int" name="FOURORBIT">     0</i>
   <i name="AEXX">      0.00000000</i>
   <i name="HFALPHA">      0.00000000</i>
   <i name="MCALPHA">      0.00000000</i>
   <i name="ALDAX">      1.00000000</i>
   <i name="AGGAX">      1.00000000</i>
   <i name="ALDAC">      1.00000000</i>
   <i name="AGGAC">      1.00000000</i>
   <i type="int" name="NKREDX">     1</i>
   <i type="int" name="NKREDY">     1</i>
   <i type="int" name="NKREDZ">     1</i>
   <i type="logical" name="SHIFTRED"> F  </i>
   <i type="logical" name="ODDONLY"> F  </i>
   <i type="logical" name="EVENONLY"> F  </i>
   <i type="int" name="LMAXFOCK">     0</i>
   <i type="int" name="NMAXFOCKAE">     0</i>
   <i type="logical" name="LFOCKAEDFT"> F  </i>
   <i name="HFSCREEN">      0.00000000</i>
   <i name="HFSCREENC">      0.00000000</i>
   <i type="int" name="NBANDSGWLOW">     0</i>
  </separator>
  <separator name="vdW DFT" >
   <i type="logical" name="LUSE_VDW"> F  </i>
   <i type="int" name="IVDW_NL">     1</i>
   <i type="logical" name="LSPIN_VDW"> F  </i>
   <i name="Zab_VDW">     -0.84910000</i>
   <i name="PARAM1">      0.12340000</i>
   <i name="PARAM2">      1.00000000</i>
   <i name="PARAM3">      0.00000000</i>
  </separator>
  <separator name="model GW" >
   <i type="int" name="MODEL_GW">     0</i>
   <i name="MODEL_EPS0">     16.96413012</i>
   <i name="MODEL_ALPHA">      1.00000000</i>
  </separator>
  <separator name="linear response parameters" >
   <i type="logical" name="LEPSILON"> F  </i>
   <i type="logical" name="LRPA"> F  </i>
   <i type="logical" name="LNABLA"> F  </i>
   <i type="logical" name="LVEL"> F  </i>
   <i name="CSHIFT">      0.10000000</i>
   <i name="OMEGAMAX">     -1.00000000</i>
   <i name="DEG_THRESHOLD">      0.00200000</i>
   <i name="RTIME">     -0.10000000</i>
   <i name="WPLASMAI">      0.00000000</i>
   <v name="DFIELD">      0.00000000      0.00000000      0.00000000</v>
   <v name="WPLASMA">      0.00000000      0.00000000      0.00000000      0.00000000      0.00000000      0.00000000      0.00000000      0.00000000      0.00000000</v>
  </separator>
  <separator name="orbital magnetization" >
   <i type="logical" name="NUCIND"> F  </i>
   <v name="MAGPOS">      0.00000000      0.00000000      0.00000000</v>
   <i type="logical" name="LNICSALL"> T  </i>
   <i type="logical" name="ORBITALMAG"> F  </i>
   <i type="logical" name="LMAGBLOCH"> F  </i>
   <i type="logical" name="LCHIMAG"> F  </i>
   <i type="logical" name="LGAUGE"> T  </i>
   <i type="int" name="MAGATOM">     0</i>
   <v name="MAGDIPOL">      0.00000000      0.00000000      0.00000000</v>
   <v name="AVECCONST">      0.00000000      0.00000000      0.00000000</v>
  </separator>
  <separator name="response functions" >
   <i type="logical" name="LALL_IN_ONE"> F  </i>
   <i type="int" name="IALL_IN_ONE">    -1</i>
   <i type="int" name="NBANDS_WAVE">    -1</i>
   <i type="logical" name="LFINITE_TEMPERATURE"> F  </i>
   <i type="logical" name="LADDER"> F  </i>
   <i type="logical" name="LRPAFORCE"> F  </i>
   <i type="logical" name="LFXC"> F  </i>
   <i type="logical" name="LHARTREE"> T  </i>
   <i type="int" name="IBSE">     0</i>
   <v type="int" name="KPOINT">    -1     0     0     0</v>
   <i type="logical" name="LTCTC"> F  </i>
   <i type="logical" name="LTCTE"> F  </i>
   <i type="logical" name="LTETE"> F  </i>
   <i type="logical" name="LTRIPLET"> F  </i>
   <i type="logical" name="LFXCEPS"> F  </i>
   <i type="logical" name="LFXHEG"> F  </i>
   <i type="int" name="NATURALO">     2</i>
   <i type="logical" name="LHOLEGF"> F  </i>
   <i type="logical" name="L2ORDER"> F  </i>
   <i type="logical" name="LDMP1"> F  </i>
   <i type="logical" name="LMP2LT"> F  </i>
   <i type="logical" name="LSMP2LT"> F  </i>
   <i type="logical" name="LGWLF"> F  </i>
   <i name="ENCUTGW">     -1.60000002</i>
   <i name="ENCUTGWSOFT">     -1.60000002</i>
   <i name="ENCUTLF">     -1.00000000</i>
   <i type="logical" name="LESF_SPLINES"> F  </i>
   <i type="int" name="LMAXMP2">    -1</i>
   <i name="SCISSOR">      0.00000000</i>
   <i type="int" name="NOMEGA">     0</i>
   <i type="int" name="NOMEGAR">     0</i>
   <i type="int" name="NBANDSGW">    -1</i>
   <i type="int" name="NBANDSO">    -1</i>
   <i type="int" name="NBANDSV">    -1</i>
   <i type="int" name="NELMGW">     1</i>
   <i type="int" name="NELMHF">     1</i>
   <i type="int" name="DIM">     3</i>
   <i type="int" name="IESPILON">     4</i>
   <i type="int" name="ANTIRES">     0</i>
   <i name="OMEGAMAX">    -30.00000000</i>
   <i name="OMEGAMIN">    -30.00000000</i>
   <i name="OMEGATL">   -200.00000000</i>
   <i type="int" name="OMEGAGRID">     0</i>
   <i name="CSHIFT">     -0.10000000</i>
   <i type="logical" name="LSELFENERGY"> F  </i>
   <i type="logical" name="LSPECTRAL"> F  </i>
   <i type="logical" name="LSPECTRALGW"> F  </i>
   <i type="logical" name="LSINGLES"> F  </i>
   <i type="logical" name="LFERMIGW"> F  </i>
   <i type="logical" name="ODDONLYGW"> F  </i>
   <i type="logical" name="EVENONLYGW"> F  </i>
   <i type="int" name="NKREDLFX">     1</i>
   <i type="int" name="NKREDLFY">     1</i>
   <i type="int" name="NKREDLFZ">     1</i>
   <i type="int" name="MAXMEM">  2800</i>
   <i type="int" name="TELESCOPE">     0</i>
   <i type="int" name="NTAUPAR">    -1</i>
   <i type="int" name="NOMEGAPAR">    -1</i>
   <i name="DAMP_NEWTON">      0.80000001</i>
   <i name="LAMBDA">      1.00000000</i>
  </separator>
  <separator name="External order field" >
   <i name="OFIELD_KAPPA">      0.00000000</i>
   <v name="OFIELD_K">      0.00000000      0.00000000      0.00000000</v>
   <i name="OFIELD_Q6_NEAR">      0.00000000</i>
   <i name="OFIELD_Q6_FAR">      0.00000000</i>
   <i name="OFIELD_A">      0.00000000</i>
  </separator>
  <separator name="optional k-points parameters" >
   <i type="int" name="KPOINTS_OPT_MODE">     1</i>
   <i type="logical" name="LKPOINTS_OPT"> F  </i>
  </separator>
 </parameters>
 <atominfo>
  <atoms>       2 </atoms>
  <types>       2 </types>
  <array name="atoms" >
   <dimension dim="1">ion</dimension>
   <field type="string">element</field>
   <field type="int">atomtype</field>
   <set>
    <rc><c>In</c><c>   1</c></rc>
    <rc><c>As</c><c>   2</c></rc>
   </set>
  </array>
  <array name="atomtypes" >
   <dimension dim="1">type</dimension>
   <field type="int">atomspertype</field>
   <field type="string">element</field>
   <field>mass</field>
   <field>valence</field>
   <field type="string">pseudopotential</field>
   <set>
    <rc><c>   1</c><c>In</c><c>    114.82000000</c><c>     13.00000000</c><c> PAW_PBE In_d 06Sep2000                 </c></rc>
    <rc><c>   1</c><c>As</c><c>     74.92200000</c><c>      5.00000000</c><c> PAW_PBE As 06Sep2000                   </c></rc>
   </set>
  </array>
 </atominfo>
 <structure name="initialpos" >
  <crystal>
   <varray name="basis" >
    <v>       3.73111929      -0.00000000       2.15416231 </v>
    <v>       1.24370677       3.51773231       2.15416231 </v>
    <v>      -0.00000000      -0.00000000       4.30832462 </v>
   </varray>
   <i name="volume">     56.54710041 </i>
   <varray name="rec_basis" >
    <v>       0.26801609      -0.09475804       0.00000000 </v>
    <v>       0.00000000       0.28427405       0.00000000 </v>
    <v>      -0.13400804      -0.09475800       0.23210879 </v>
   </varray>
  </crystal>
  <varray name="positions" >
   <v>       0.25000000       0.25000000       0.25000000 </v>
   <v>       0.00000000       0.00000000       0.00000000 </v>
  </varray>
 </structure>
 <calculation>
  <scstep>
   <time name="dav">    1.20    1.22</time>
   <time name="total">    1.69    1.70</time>
   <energy>
    <i name="alphaZ">     37.49967080 </i>
    <i name="ewald">  -1174.26048609 </i>
    <i name="hartreedc">   -577.75894780 </i>
    <i name="XCdc">     29.88715008 </i>
    <i name="pawpsdc">   1284.59198191 </i>
    <i name="pawaedc">  -1253.67447314 </i>
    <i name="eentropy">     -0.00060100 </i>
    <i name="bandstr">     13.45747440 </i>
    <i name="atom">   1746.94572762 </i>
    <i name="e_fr_energy">    106.68749679 </i>
    <i name="e_wo_entrp">    106.68809778 </i>
    <i name="e_0_energy">    106.68779728 </i>
   </energy>
  </scstep>
  <scstep>
   <time name="dav">    1.06    1.06</time>
   <time name="total">    1.06    1.06</time>
   <energy>
    <i name="e_fr_energy">     -0.80086759 </i>
    <i name="e_wo_entrp">     -0.80059638 </i>
    <i name="e_0_energy">     -0.80073198 </i>
   </energy>
  </scstep>
  <scstep>
   <time name="dav">    1.24    1.24</time>
   <time name="total">    1.24    1.24</time>
   <energy>
    <i name="e_fr_energy">     -7.83881728 </i>
    <i name="e_wo_entrp">     -7.83877244 </i>
    <i name="e_0_energy">     -7.83879486 </i>
   </energy>
  </scstep>
  <scstep>
   <time name="dav">    1.17    1.17</time>
   <time name="total">    1.17    1.17</time>
   <energy>
    <i name="e_fr_energy">     -7.99582793 </i>
    <i name="e_wo_entrp">     -7.99577078 </i>
    <i name="e_0_energy">     -7.99579935 </i>
   </energy>
  </scstep>
  <scstep>
   <time name="dav">    1.43    1.43</time>
   <time name="total">    1.50    1.50</time>
   <energy>
    <i name="e_fr_energy">     -8.00264882 </i>
    <i name="e_wo_entrp">     -8.00259185 </i>
    <i name="e_0_energy">     -8.00262034 </i>
   </energy>
  </scstep>
  <scstep>
   <time name="dav">    1.41    1.41</time>
   <time name="total">    1.88    1.88</time>
   <energy>
    <i name="e_fr_energy">     -7.86638200 </i>
    <i name="e_wo_entrp">     -7.86632146 </i>
    <i name="e_0_energy">     -7.86635173 </i>
   </energy>
  </scstep>
  <scstep>
   <time name="dav">    1.13    1.13</time>
   <time name="total">    1.60    1.60</time>
   <energy>
    <i name="e_fr_energy">     -7.85058339 </i>
    <i name="e_wo_entrp">     -7.85050796 </i>
    <i name="e_0_energy">     -7.85054568 </i>
   </energy>
  </scstep>
  <scstep>
   <time name="dav">    1.10    1.10</time>
   <time name="total">    1.57    1.58</time>
   <energy>
    <i name="e_fr_energy">     -7.85128084 </i>
    <i name="e_wo_entrp">     -7.85120464 </i>
    <i name="e_0_energy">     -7.85124274 </i>
   </energy>
  </scstep>
  <scstep>
   <time name="dav">    1.15    1.15</time>
   <time name="total">    1.62    1.62</time>
   <energy>
    <i name="e_fr_energy">     -7.85240734 </i>
    <i name="e_wo_entrp">     -7.85233213 </i>
    <i name="e_0_energy">     -7.85236974 </i>
   </energy>
  </scstep>
  <scstep>
   <time name="dav">    1.15    1.15</time>
   <time name="total">    1.61    1.61</time>
   <energy>
    <i name="e_fr_energy">     -7.85198183 </i>
    <i name="e_wo_entrp">     -7.85190452 </i>
    <i name="e_0_energy">     -7.85194318 </i>
   </energy>
  </scstep>
  <scstep>
   <time name="dav">    1.23    1.23</time>
   <time name="total">    1.68    1.68</time>
   <energy>
    <i name="e_fr_energy">     -7.85196610 </i>
    <i name="e_wo_entrp">     -7.85188877 </i>
    <i name="e_0_energy">     -7.85192744 </i>
   </energy>
  </scstep>
  <scstep>
   <time name="dav">    1.13    1.13</time>
   <time name="total">    1.59    1.59</time>
   <energy>
    <i name="e_fr_energy">     -7.85198365 </i>
    <i name="e_wo_entrp">     -7.85190632 </i>
    <i name="e_0_energy">     -7.85194498 </i>
   </energy>
  </scstep>
  <scstep>
   <time name="dav">    1.17    1.17</time>
   <time name="total">    1.63    1.63</time>
   <energy>
    <i name="e_fr_energy">     -7.85198914 </i>
    <i name="e_wo_entrp">     -7.85191181 </i>
    <i name="e_0_energy">     -7.85195048 </i>
   </energy>
  </scstep>
  <scstep>
   <time name="dav">    1.11    1.11</time>
   <time name="total">    1.58    1.58</time>
   <energy>
    <i name="e_fr_energy">     -7.85198718 </i>
    <i name="e_wo_entrp">     -7.85190985 </i>
    <i name="e_0_energy">     -7.85194851 </i>
   </energy>
  </scstep>
  <scstep>
   <time name="dav">    0.86    0.85</time>
   <time name="total">    1.26    1.26</time>
   <energy>
    <i name="alphaZ">     37.49967080 </i>
    <i name="ewald">  -1174.26048609 </i>
    <i name="hartreedc">   -574.36284285 </i>
    <i name="XCdc">     30.05037100 </i>
    <i name="pawpsdc">   1321.56985590 </i>
    <i name="pawaedc">  -1291.39789296 </i>
    <i name="eentropy">     -0.00007733 </i>
    <i name="bandstr">   -103.89631345 </i>
    <i name="atom">   1746.94572762 </i>
    <i name="e_fr_energy">     -7.85198735 </i>
    <i name="e_wo_entrp">     -7.85191003 </i>
    <i name="e_0_energy">     -7.85194869 </i>
   </energy>
  </scstep>
  <structure>
   <crystal>
    <varray name="basis" >
     <v>       3.73111929      -0.00000000       2.15416231 </v>
     <v>       1.24370677       3.51773231       2.15416231 </v>
     <v>      -0.00000000      -0.00000000       4.30832462 </v>
    </varray>
    <i name="volume">     56.54710041 </i>
    <varray name="rec_basis" >
     <v>       0.26801609      -0.09475804       0.00000000 </v>
     <v>       0.00000000       0.28427405       0.00000000 </v>
     <v>      -0.13400804      -0.09475800       0.23210879 </v>
    </varray>
   </crystal>
   <varray name="positions" >
    <v>       0.25000000       0.25000000       0.25000000 </v>
    <v>       0.00000000       0.00000000       0.00000000 </v>
   </varray>
  </structure>
  <varray name="forces" >
   <v>      -0.00000000       0.00000000      -0.00000000 </v>
   <v>       0.00000000      -0.00000000       0.00000000 </v>
  </varray>
  <varray name="stress" >
   <v>      26.19826653       0.00000251       0.00000003 </v>
   <v>       0.00000251      26.19825615       0.00000002 </v>
   <v>       0.00000003       0.00000002      26.19825632 </v>
  </varray>
  <energy>
   <i name="e_fr_energy">     -7.85198735 </i>
   <i name="e_wo_entrp">     -7.85191003 </i>
   <i name="e_0_energy">     -7.85194869 </i>
  </energy>
  <time name="totalsc">   25.33   25.35</time>
  <eigenvalues>
   <array>
    <dimension dim="1">band</dimension>
    <dimension dim="2">kpoint</dimension>
    <dimension dim="3">spin</dimension>
    <field>eigene</field>
    <field>occ</field>
    <set>
     <set comment="spin 1">
      <set comment="kpoint 1">
       <r>  -10.0942    1.0000 </r>
       <r>  -10.0942    1.0000 </r>
       <r>  -10.0942    1.0000 </r>
       <r>   -9.9780    1.0000 </r>
       <r>   -9.9780    1.0000 </r>
       <r>   -7.4011    1.0000 </r>
       <r>    4.0239    1.0000 </r>
       <r>    4.2926    0.6669 </r>
       <r>    4.2926    0.6669 </r>
       <r>    4.2926    0.6669 </r>
       <r>    8.1914    0.0000 </r>
       <r>    8.1914    0.0000 </r>
       <r>    8.1914    0.0000 </r>
       <r>   11.7437    0.0000 </r>
       <r>   13.9040    0.0000 </r>
       <r>   13.9040    0.0000 </r>
      </set>
      <set comment="kpoint 2">
       <r>  -10.1056    1.0000 </r>
       <r>  -10.0906    1.0000 </r>
       <r>  -10.0906    1.0000 </r>
       <r>   -9.9781    1.0000 </r>
       <r>   -9.9781    1.0000 </r>
       <r>   -7.3015    1.0000 </r>
       <r>    2.7745    1.0000 </r>
       <r>    4.1693    1.0000 </r>
       <r>    4.1693    1.0000 </r>
       <r>    5.1933    0.0000 </r>
       <r>    8.2487    0.0000 </r>
       <r>    8.3747    0.0000 </r>
       <r>    8.3747    0.0000 </r>
       <r>   12.3236    0.0000 </r>
       <r>   13.2218    0.0000 </r>
       <r>   13.2218    0.0000 </r>
      </set>
      <set comment="kpoint 3">
       <r>  -10.1344    1.0000 </r>
       <r>  -10.0820    1.0000 </r>
       <r>  -10.0820    1.0000 </r>
       <r>   -9.9777    1.0000 </r>
       <r>   -9.9777    1.0000 </r>
       <r>   -7.0188    1.0000 </r>
       <r>    1.3359    1.0000 </r>
       <r>    3.8911    1.0000 </r>
       <r>    3.8911    1.0000 </r>
       <r>    5.5339    0.0000 </r>
       <r>    8.7450    0.0000 </r>
       <r>    8.7450    0.0000 </r>
       <r>    8.8561    0.0000 </r>
       <r>   12.7732    0.0000 </r>
       <r>   12.7732    0.0000 </r>
       <r>   12.8075    0.0000 </r>
      </set>
      <set comment="kpoint 4">
       <r>  -10.1680    1.0000 </r>
       <r>  -10.0729    1.0000 </r>
       <r>  -10.0729    1.0000 </r>
       <r>   -9.9756    1.0000 </r>
       <r>   -9.9756    1.0000 </r>
       <r>   -6.6076    1.0000 </r>
       <r>    0.0230    1.0000 </r>
       <r>    3.6066    1.0000 </r>
       <r>    3.6066    1.0000 </r>
       <r>    5.4305    0.0000 </r>
       <r>    8.9677    0.0000 </r>
       <r>    8.9677    0.0000 </r>
       <r>    9.9858    0.0000 </r>
       <r>   12.4586    0.0000 </r>
       <r>   13.0540    0.0000 </r>
       <r>   13.0540    0.0000 </r>
      </set>
      <set comment="kpoint 5">
       <r>  -10.1937    1.0000 </r>
       <r>  -10.0670    1.0000 </r>
       <r>  -10.0670    1.0000 </r>
       <r>   -9.9723    1.0000 </r>
       <r>   -9.9722    1.0000 </r>
       <r>   -6.1923    1.0000 </r>
       <r>   -0.9600    1.0000 </r>
       <r>    3.4082    1.0000 </r>
       <r>    3.4082    1.0000 </r>
       <r>    5.2825    0.0000 </r>
       <r>    8.9788    0.0000 </r>
       <r>    8.9788    0.0000 </r>
       <r>   10.9209    0.0000 </r>
       <r>   12.6206    0.0000 </r>
       <r>   14.0204    0.0000 </r>
       <r>   14.0204    0.0000 </r>
      </set>
      <set comment="kpoint 6">
       <r>  -10.2033    1.0000 </r>
       <r>  -10.0652    1.0000 </r>
       <r>  -10.0652    1.0000 </r>
       <r>   -9.9706    1.0000 </r>
       <r>   -9.9706    1.0000 </r>
       <r>   -6.0012    1.0000 </r>
       <r>   -1.3444    1.0000 </r>
       <r>    3.3381    1.0000 </r>
       <r>    3.3381    1.0000 </r>
       <r>    5.2246    0.0000 </r>
       <r>    8.9546    0.0000 </r>
       <r>    8.9546    0.0000 </r>
       <r>   11.1174    0.0000 </r>
       <r>   13.2246    0.0000 </r>
       <r>   14.9576    0.0000 </r>
       <r>   14.9576    0.0000 </r>
      </set>
      <set comment="kpoint 7">
       <r>  -10.1132    1.0000 </r>
       <r>  -10.0873    1.0000 </r>
       <r>  -10.0873    1.0000 </r>
       <r>   -9.9806    1.0000 </r>
       <r>   -9.9760    1.0000 </r>
       <r>   -7.2685    1.0000 </r>
       <r>    2.6894    1.0000 </r>
       <r>    3.9443    1.0000 </r>
       <r>    3.9443    1.0000 </r>
       <r>    5.6190    0.0000 </r>
       <r>    7.7231    0.0000 </r>
       <r>    8.6864    0.0000 </r>
       <r>    8.6864    0.0000 </r>
       <r>   12.2707    0.0000 </r>
       <r>   12.6157    0.0000 </r>
       <r>   14.0115    0.0000 </r>
      </set>
      <set comment="kpoint 8">
       <r>  -10.1368    1.0000 </r>
       <r>  -10.0801    1.0000 </r>
       <r>  -10.0785    1.0000 </r>
       <r>   -9.9829    1.0000 </r>
       <r>   -9.9741    1.0000 </r>
       <r>   -7.0468    1.0000 </r>
       <r>    1.6288    1.0000 </r>
       <r>    3.6186    1.0000 </r>
       <r>    3.6598    1.0000 </r>
       <r>    6.1374    0.0000 </r>
       <r>    7.6684    0.0000 </r>
       <r>    9.1680    0.0000 </r>
       <r>    9.1829    0.0000 </r>
       <r>   11.7813    0.0000 </r>
       <r>   13.4205    0.0000 </r>
       <r>   13.6651    0.0000 </r>
      </set>
      <set comment="kpoint 9">
       <r>  -10.1666    1.0000 </r>
       <r>  -10.0724    1.0000 </r>
       <r>  -10.0689    1.0000 </r>
       <r>   -9.9829    1.0000 </r>
       <r>   -9.9718    1.0000 </r>
       <r>   -6.6759    1.0000 </r>
       <r>    0.3834    1.0000 </r>
       <r>    3.2934    1.0000 </r>
       <r>    3.3375    1.0000 </r>
       <r>    6.1609    0.0000 </r>
       <r>    8.2035    0.0000 </r>
       <r>    9.4701    0.0000 </r>
       <r>    9.6323    0.0000 </r>
       <r>   12.0825    0.0000 </r>
       <r>   13.4171    0.0000 </r>
       <r>   13.7221    0.0000 </r>
      </set>
      <set comment="kpoint 10">
       <r>  -10.1925    1.0000 </r>
       <r>  -10.0663    1.0000 </r>
       <r>  -10.0624    1.0000 </r>
       <r>   -9.9796    1.0000 </r>
       <r>   -9.9697    1.0000 </r>
       <r>   -6.2504    1.0000 </r>
       <r>   -0.6746    1.0000 </r>
       <r>    2.9455    1.0000 </r>
       <r>    3.1794    1.0000 </r>
       <r>    6.0146    0.0000 </r>
       <r>    8.5561    0.0000 </r>
       <r>    9.4519    0.0000 </r>
       <r>   10.3883    0.0000 </r>
       <r>   12.6964    0.0000 </r>
       <r>   13.6344    0.0000 </r>
       <r>   14.4888    0.0000 </r>
      </set>
      <set comment="kpoint 11">
       <r>  -10.2060    1.0000 </r>
       <r>  -10.0633    1.0000 </r>
       <r>  -10.0604    1.0000 </r>
       <r>   -9.9750    1.0000 </r>
       <r>   -9.9699    1.0000 </r>
       <r>   -5.9633    1.0000 </r>
       <r>   -1.2620    1.0000 </r>
       <r>    2.7105    1.0000 </r>
       <r>    3.1742    1.0000 </r>
       <r>    5.9182    0.0000 </r>
       <r>    8.6467    0.0000 </r>
       <r>    9.3005    0.0000 </r>
       <r>   11.2141    0.0000 </r>
       <r>   13.0645    0.0000 </r>
       <r>   14.3917    0.0000 </r>
       <r>   14.9933    0.0000 </r>
      </set>
      <set comment="kpoint 12">
       <r>  -10.2025    1.0000 </r>
       <r>  -10.0633    1.0000 </r>
       <r>  -10.0622    1.0000 </r>
       <r>   -9.9735    1.0000 </r>
       <r>   -9.9723    1.0000 </r>
       <r>   -6.0287    1.0000 </r>
       <r>   -1.1342    1.0000 </r>
       <r>    2.6333    1.0000 </r>
       <r>    3.3197    1.0000 </r>
       <r>    5.9235    0.0000 </r>
       <r>    8.7761    0.0000 </r>
       <r>    9.1680    0.0000 </r>
       <r>   11.1150    0.0000 </r>
       <r>   13.1008    0.0000 </r>
       <r>   13.7365    0.0000 </r>
       <r>   14.8264    0.0000 </r>
      </set>
      <set comment="kpoint 13">
       <r>  -10.1830    1.0000 </r>
       <r>  -10.0683    1.0000 </r>
       <r>  -10.0663    1.0000 </r>
       <r>   -9.9783    1.0000 </r>
       <r>   -9.9726    1.0000 </r>
       <r>   -6.3903    1.0000 </r>
       <r>   -0.3560    1.0000 </r>
       <r>    2.7380    1.0000 </r>
       <r>    3.5851    1.0000 </r>
       <r>    6.0166    0.0000 </r>
       <r>    8.9275    0.0000 </r>
       <r>    9.0353    0.0000 </r>
       <r>   10.1402    0.0000 </r>
       <r>   12.6222    0.0000 </r>
       <r>   12.9943    0.0000 </r>
       <r>   14.4587    0.0000 </r>
      </set>
      <set comment="kpoint 14">
       <r>  -10.1536    1.0000 </r>
       <r>  -10.0777    1.0000 </r>
       <r>  -10.0730    1.0000 </r>
       <r>   -9.9808    1.0000 </r>
       <r>   -9.9745    1.0000 </r>
       <r>   -6.8131    1.0000 </r>
       <r>    0.7796    1.0000 </r>
       <r>    3.0428    1.0000 </r>
       <r>    3.9021    1.0000 </r>
       <r>    6.0820    0.0000 </r>
       <r>    8.6017    0.0000 </r>
       <r>    8.7721    0.0000 </r>
       <r>    9.4655    0.0000 </r>
       <r>   12.1604    0.0000 </r>
       <r>   12.9451    0.0000 </r>
       <r>   13.8462    0.0000 </r>
      </set>
      <set comment="kpoint 15">
       <r>  -10.1240    1.0000 </r>
       <r>  -10.0867    1.0000 </r>
       <r>  -10.0823    1.0000 </r>
       <r>   -9.9802    1.0000 </r>
       <r>   -9.9762    1.0000 </r>
       <r>   -7.1408    1.0000 </r>
       <r>    1.9576    1.0000 </r>
       <r>    3.5712    1.0000 </r>
       <r>    4.1473    1.0000 </r>
       <r>    5.7809    0.0000 </r>
       <r>    8.1487    0.0000 </r>
       <r>    8.4443    0.0000 </r>
       <r>    9.0547    0.0000 </r>
       <r>   12.4317    0.0000 </r>
       <r>   12.8990    0.0000 </r>
       <r>   13.1678    0.0000 </r>
      </set>
      <set comment="kpoint 16">
       <r>  -10.1586    1.0000 </r>
       <r>  -10.0691    1.0000 </r>
       <r>  -10.0691    1.0000 </r>
       <r>   -9.9884    1.0000 </r>
       <r>   -9.9708    1.0000 </r>
       <r>   -6.8925    1.0000 </r>
       <r>    1.2958    1.0000 </r>
       <r>    3.2552    1.0000 </r>
       <r>    3.2552    1.0000 </r>
       <r>    6.7458    0.0000 </r>
       <r>    6.9579    0.0000 </r>
       <r>    9.8143    0.0000 </r>
       <r>    9.8143    0.0000 </r>
       <r>   11.0770    0.0000 </r>
       <r>   14.2579    0.0000 </r>
       <r>   14.3282    0.0000 </r>
      </set>
      <set comment="kpoint 17">
       <r>  -10.1843    1.0000 </r>
       <r>  -10.0600    1.0000 </r>
       <r>  -10.0583    1.0000 </r>
       <r>   -9.9919    1.0000 </r>
       <r>   -9.9679    1.0000 </r>
       <r>   -6.5816    1.0000 </r>
       <r>    0.4488    1.0000 </r>
       <r>    2.8302    1.0000 </r>
       <r>    2.9523    1.0000 </r>
       <r>    6.7554    0.0000 </r>
       <r>    7.2051    0.0000 </r>
       <r>    9.9226    0.0000 </r>
       <r>   10.3229    0.0000 </r>
       <r>   11.6422    0.0000 </r>
       <r>   14.4324    0.0000 </r>
       <r>   14.8707    0.0000 </r>
      </set>
      <set comment="kpoint 18">
       <r>  -10.2053    1.0000 </r>
       <r>  -10.0557    1.0000 </r>
       <r>  -10.0507    1.0000 </r>
       <r>   -9.9909    1.0000 </r>
       <r>   -9.9662    1.0000 </r>
       <r>   -6.1854    1.0000 </r>
       <r>   -0.4590    1.0000 </r>
       <r>    2.3108    1.0000 </r>
       <r>    2.7904    1.0000 </r>
       <r>    6.6510    0.0000 </r>
       <r>    7.9845    0.0000 </r>
       <r>    9.7618    0.0000 </r>
       <r>   10.4118    0.0000 </r>
       <r>   12.9029    0.0000 </r>
       <r>   14.7730    0.0000 </r>
       <r>   15.0049    0.0000 </r>
      </set>
      <set comment="kpoint 19">
       <r>  -10.2164    1.0000 </r>
       <r>  -10.0553    1.0000 </r>
       <r>  -10.0480    1.0000 </r>
       <r>   -9.9858    1.0000 </r>
       <r>   -9.9676    1.0000 </r>
       <r>   -5.8551    1.0000 </r>
       <r>   -1.0963    1.0000 </r>
       <r>    1.8865    1.0000 </r>
       <r>    2.8008    1.0000 </r>
       <r>    6.5931    0.0000 </r>
       <r>    8.5599    0.0000 </r>
       <r>   10.2099    0.0000 </r>
       <r>   10.3141    0.0000 </r>
       <r>   13.2570    0.0000 </r>
       <r>   14.9993    0.0000 </r>
       <r>   15.1169    0.0000 </r>
      </set>
      <set comment="kpoint 20">
       <r>  -10.2149    1.0000 </r>
       <r>  -10.0570    1.0000 </r>
       <r>  -10.0501    1.0000 </r>
       <r>   -9.9796    1.0000 </r>
       <r>   -9.9727    1.0000 </r>
       <r>   -5.8033    1.0000 </r>
       <r>   -1.1830    1.0000 </r>
       <r>    1.6652    1.0000 </r>
       <r>    2.9801    1.0000 </r>
       <r>    6.6379    0.0000 </r>
       <r>    8.7436    0.0000 </r>
       <r>    9.9376    0.0000 </r>
       <r>   11.0239    0.0000 </r>
       <r>   12.8431    0.0000 </r>
       <r>   13.6975    0.0000 </r>
       <r>   14.7787    0.0000 </r>
      </set>
      <set comment="kpoint 21">
       <r>  -10.2012    1.0000 </r>
       <r>  -10.0600    1.0000 </r>
       <r>  -10.0570    1.0000 </r>
       <r>   -9.9787    1.0000 </r>
       <r>   -9.9752    1.0000 </r>
       <r>   -6.0717    1.0000 </r>
       <r>   -0.6908    1.0000 </r>
       <r>    1.7215    1.0000 </r>
       <r>    3.2906    1.0000 </r>
       <r>    6.7380    0.0000 </r>
       <r>    8.9477    0.0000 </r>
       <r>    9.6203    0.0000 </r>
       <r>   10.0483    0.0000 </r>
       <r>   12.5300    0.0000 </r>
       <r>   13.8424    0.0000 </r>
       <r>   15.2232    0.0000 </r>
      </set>
      <set comment="kpoint 22">
       <r>  -10.1788    1.0000 </r>
       <r>  -10.0677    1.0000 </r>
       <r>  -10.0650    1.0000 </r>
       <r>   -9.9817    1.0000 </r>
       <r>   -9.9736    1.0000 </r>
       <r>   -6.4673    1.0000 </r>
       <r>    0.0731    1.0000 </r>
       <r>    2.1629    1.0000 </r>
       <r>    3.6477    1.0000 </r>
       <r>    6.6688    0.0000 </r>
       <r>    8.8828    0.0000 </r>
       <r>    9.1774    0.0000 </r>
       <r>    9.3593    0.0000 </r>
       <r>   12.0125    0.0000 </r>
       <r>   14.0277    0.0000 </r>
       <r>   14.8022    0.0000 </r>
      </set>
      <set comment="kpoint 23">
       <r>  -10.2085    1.0000 </r>
       <r>  -10.0460    1.0000 </r>
       <r>  -10.0460    1.0000 </r>
       <r>   -9.9993    1.0000 </r>
       <r>   -9.9643    1.0000 </r>
       <r>   -6.3404    1.0000 </r>
       <r>    0.0180    1.0000 </r>
       <r>    2.6177    1.0000 </r>
       <r>    2.6177    1.0000 </r>
       <r>    6.3064    0.0000 </r>
       <r>    6.9833    0.0000 </r>
       <r>   11.1818    0.0000 </r>
       <r>   11.1818    0.0000 </r>
       <r>   11.2811    0.0000 </r>
       <r>   14.8269    0.0000 </r>
       <r>   16.0626    0.0000 </r>
      </set>
      <set comment="kpoint 24">
       <r>  -10.2271    1.0000 </r>
       <r>  -10.0392    1.0000 </r>
       <r>  -10.0371    1.0000 </r>
       <r>  -10.0018    1.0000 </r>
       <r>   -9.9622    1.0000 </r>
       <r>   -6.0071    1.0000 </r>
       <r>   -0.6023    1.0000 </r>
       <r>    2.1684    1.0000 </r>
       <r>    2.4256    1.0000 </r>
       <r>    6.3524    0.0000 </r>
       <r>    7.0658    0.0000 </r>
       <r>   10.8663    0.0000 </r>
       <r>   11.5924    0.0000 </r>
       <r>   12.8139    0.0000 </r>
       <r>   15.2905    0.0000 </r>
       <r>   16.2359    0.0000 </r>
      </set>
      <set comment="kpoint 25">
       <r>  -10.2344    1.0000 </r>
       <r>  -10.0409    1.0000 </r>
       <r>  -10.0337    1.0000 </r>
       <r>   -9.9981    1.0000 </r>
       <r>   -9.9636    1.0000 </r>
       <r>   -5.6989    1.0000 </r>
       <r>   -1.0888    1.0000 </r>
       <r>    1.5679    1.0000 </r>
       <r>    2.4146    1.0000 </r>
       <r>    6.4320    0.0000 </r>
       <r>    7.9449    0.0000 </r>
       <r>   10.6479    0.0000 </r>
       <r>   11.4436    0.0000 </r>
       <r>   13.4192    0.0000 </r>
       <r>   15.3423    0.0000 </r>
       <r>   16.0199    0.0000 </r>
      </set>
      <set comment="kpoint 26">
       <r>  -10.2305    1.0000 </r>
       <r>  -10.0469    1.0000 </r>
       <r>  -10.0362    1.0000 </r>
       <r>   -9.9906    1.0000 </r>
       <r>   -9.9690    1.0000 </r>
       <r>   -5.5875    1.0000 </r>
       <r>   -1.2304    1.0000 </r>
       <r>    1.1538    1.0000 </r>
       <r>    2.5860    1.0000 </r>
       <r>    6.5620    0.0000 </r>
       <r>    9.0112    0.0000 </r>
       <r>   10.8193    0.0000 </r>
       <r>   11.0188    0.0000 </r>
       <r>   12.1806    0.0000 </r>
       <r>   13.9665    0.0000 </r>
       <r>   16.4408    0.0000 </r>
      </set>
      <set comment="kpoint 27">
       <r>  -10.2180    1.0000 </r>
       <r>  -10.0538    1.0000 </r>
       <r>  -10.0446    1.0000 </r>
       <r>   -9.9821    1.0000 </r>
       <r>   -9.9754    1.0000 </r>
       <r>   -5.7511    1.0000 </r>
       <r>   -1.0189    1.0000 </r>
       <r>    1.1538    1.0000 </r>
       <r>    2.9059    1.0000 </r>
       <r>    6.7719    0.0000 </r>
       <r>    9.3684    0.0000 </r>
       <r>   10.3928    0.0000 </r>
       <r>   10.4296    0.0000 </r>
       <r>   12.3959    0.0000 </r>
       <r>   12.9329    0.0000 </r>
       <r>   16.5152    0.0000 </r>
      </set>
      <set comment="kpoint 28">
       <r>  -10.2452    1.0000 </r>
       <r>  -10.0270    1.0000 </r>
       <r>  -10.0270    1.0000 </r>
       <r>  -10.0088    1.0000 </r>
       <r>   -9.9590    1.0000 </r>
       <r>   -5.7629    1.0000 </r>
       <r>   -1.0011    1.0000 </r>
       <r>    2.1934    1.0000 </r>
       <r>    2.1934    1.0000 </r>
       <r>    5.9680    0.0000 </r>
       <r>    6.5776    0.0000 </r>
       <r>   12.5096    0.0000 </r>
       <r>   12.5822    0.0000 </r>
       <r>   12.5822    0.0000 </r>
       <r>   15.4047    0.0000 </r>
       <r>   16.7964    0.0000 </r>
      </set>
      <set comment="kpoint 29">
       <r>  -10.2515    1.0000 </r>
       <r>  -10.0265    1.0000 </r>
       <r>  -10.0232    1.0000 </r>
       <r>  -10.0079    1.0000 </r>
       <r>   -9.9591    1.0000 </r>
       <r>   -5.5481    1.0000 </r>
       <r>   -1.3039    1.0000 </r>
       <r>    1.8139    1.0000 </r>
       <r>    2.1426    1.0000 </r>
       <r>    6.1089    0.0000 </r>
       <r>    6.7803    0.0000 </r>
       <r>   12.2284    0.0000 </r>
       <r>   12.7248    0.0000 </r>
       <r>   13.4996    0.0000 </r>
       <r>   15.6116    0.0000 </r>
       <r>   16.0870    0.0000 </r>
      </set>
      <set comment="kpoint 30">
       <r>  -10.2450    1.0000 </r>
       <r>  -10.0350    1.0000 </r>
       <r>  -10.0264    1.0000 </r>
       <r>  -10.0010    1.0000 </r>
       <r>   -9.9634    1.0000 </r>
       <r>   -5.4779    1.0000 </r>
       <r>   -1.3439    1.0000 </r>
       <r>    1.2948    1.0000 </r>
       <r>    2.2824    1.0000 </r>
       <r>    6.2991    0.0000 </r>
       <r>    7.8688    0.0000 </r>
       <r>   11.8214    0.0000 </r>
       <r>   12.0724    0.0000 </r>
       <r>   12.4889    0.0000 </r>
       <r>   14.6559    0.0000 </r>
       <r>   16.6954    0.0000 </r>
      </set>
      <set comment="kpoint 31">
       <r>  -10.2585    1.0000 </r>
       <r>  -10.0196    1.0000 </r>
       <r>  -10.0196    1.0000 </r>
       <r>  -10.0126    1.0000 </r>
       <r>   -9.9570    1.0000 </r>
       <r>   -5.4828    1.0000 </r>
       <r>   -1.4305    1.0000 </r>
       <r>    2.0460    1.0000 </r>
       <r>    2.0460    1.0000 </r>
       <r>    5.8782    0.0000 </r>
       <r>    6.3594    0.0000 </r>
       <r>   13.3403    0.0000 </r>
       <r>   13.4141    0.0000 </r>
       <r>   13.4141    0.0000 </r>
       <r>   15.7187    0.0000 </r>
       <r>   16.3971    0.0000 </r>
      </set>
      <set comment="kpoint 32">
       <r>  -10.1619    1.0000 </r>
       <r>  -10.0719    1.0000 </r>
       <r>  -10.0684    1.0000 </r>
       <r>   -9.9858    1.0000 </r>
       <r>   -9.9716    1.0000 </r>
       <r>   -6.7800    1.0000 </r>
       <r>    0.8521    1.0000 </r>
       <r>    2.8646    1.0000 </r>
       <r>    3.5611    1.0000 </r>
       <r>    6.6606    0.0000 </r>
       <r>    7.5729    0.0000 </r>
       <r>    9.4995    0.0000 </r>
       <r>    9.6088    0.0000 </r>
       <r>   11.6936    0.0000 </r>
       <r>   13.7284    0.0000 </r>
       <r>   14.3109    0.0000 </r>
      </set>
      <set comment="kpoint 33">
       <r>  -10.1876    1.0000 </r>
       <r>  -10.0644    1.0000 </r>
       <r>  -10.0597    1.0000 </r>
       <r>   -9.9857    1.0000 </r>
       <r>   -9.9699    1.0000 </r>
       <r>   -6.3931    1.0000 </r>
       <r>   -0.1022    1.0000 </r>
       <r>    2.3301    1.0000 </r>
       <r>    3.2874    1.0000 </r>
       <r>    6.7785    0.0000 </r>
       <r>    8.1103    0.0000 </r>
       <r>    9.4218    0.0000 </r>
       <r>   10.0399    0.0000 </r>
       <r>   12.2542    0.0000 </r>
       <r>   14.0925    0.0000 </r>
       <r>   14.8671    0.0000 </r>
      </set>
      <set comment="kpoint 34">
       <r>  -10.2065    1.0000 </r>
       <r>  -10.0606    1.0000 </r>
       <r>  -10.0535    1.0000 </r>
       <r>   -9.9821    1.0000 </r>
       <r>   -9.9699    1.0000 </r>
       <r>   -6.0062    1.0000 </r>
       <r>   -0.9139    1.0000 </r>
       <r>    2.0576    1.0000 </r>
       <r>    3.0264    1.0000 </r>
       <r>    6.6954    0.0000 </r>
       <r>    8.4203    0.0000 </r>
       <r>    9.6982    0.0000 </r>
       <r>   10.5365    0.0000 </r>
       <r>   12.9674    0.0000 </r>
       <r>   14.1948    0.0000 </r>
       <r>   14.9920    0.0000 </r>
      </set>
      <set comment="kpoint 35">
       <r>  -10.2134    1.0000 </r>
       <r>  -10.0597    1.0000 </r>
       <r>  -10.0514    1.0000 </r>
       <r>   -9.9790    1.0000 </r>
       <r>   -9.9710    1.0000 </r>
       <r>   -5.8302    1.0000 </r>
       <r>   -1.2438    1.0000 </r>
       <r>    1.9771    1.0000 </r>
       <r>    2.9231    1.0000 </r>
       <r>    6.6547    0.0000 </r>
       <r>    8.4134    0.0000 </r>
       <r>    9.8068    0.0000 </r>
       <r>   11.2215    0.0000 </r>
       <r>   12.8207    0.0000 </r>
       <r>   14.2470    0.0000 </r>
       <r>   15.0166    0.0000 </r>
      </set>
      <set comment="kpoint 36">
       <r>  -10.2064    1.0000 </r>
       <r>  -10.0521    1.0000 </r>
       <r>  -10.0476    1.0000 </r>
       <r>   -9.9951    1.0000 </r>
       <r>   -9.9656    1.0000 </r>
       <r>   -6.2559    1.0000 </r>
       <r>   -0.1928    1.0000 </r>
       <r>    2.2461    1.0000 </r>
       <r>    2.7497    1.0000 </r>
       <r>    6.9594    0.0000 </r>
       <r>    7.2343    0.0000 </r>
       <r>    9.7986    0.0000 </r>
       <r>   11.0964    0.0000 </r>
       <r>   12.2548    0.0000 </r>
       <r>   14.9840    0.0000 </r>
       <r>   15.6682    0.0000 </r>
      </set>
      <set comment="kpoint 37">
       <r>  -10.2209    1.0000 </r>
       <r>  -10.0505    1.0000 </r>
       <r>  -10.0402    1.0000 </r>
       <r>   -9.9933    1.0000 </r>
       <r>   -9.9659    1.0000 </r>
       <r>   -5.8942    1.0000 </r>
       <r>   -0.8243    1.0000 </r>
       <r>    1.7465    1.0000 </r>
       <r>    2.5137    1.0000 </r>
       <r>    7.0360    0.0000 </r>
       <r>    7.9859    0.0000 </r>
       <r>    9.5429    0.0000 </r>
       <r>   11.4111    0.0000 </r>
       <r>   12.9710    0.0000 </r>
       <r>   15.1371    0.0000 </r>
       <r>   15.9610    0.0000 </r>
      </set>
      <set comment="kpoint 38">
       <r>  -10.2255    1.0000 </r>
       <r>  -10.0525    1.0000 </r>
       <r>  -10.0380    1.0000 </r>
       <r>   -9.9883    1.0000 </r>
       <r>   -9.9693    1.0000 </r>
       <r>   -5.6644    1.0000 </r>
       <r>   -1.1864    1.0000 </r>
       <r>    1.4089    1.0000 </r>
       <r>    2.4683    1.0000 </r>
       <r>    7.0830    0.0000 </r>
       <r>    8.6179    0.0000 </r>
       <r>    9.8549    0.0000 </r>
       <r>   11.3803    0.0000 </r>
       <r>   12.3615    0.0000 </r>
       <r>   14.9505    0.0000 </r>
       <r>   15.8718    0.0000 </r>
      </set>
      <set comment="kpoint 39">
       <r>  -10.2202    1.0000 </r>
       <r>  -10.0554    1.0000 </r>
       <r>  -10.0411    1.0000 </r>
       <r>   -9.9848    1.0000 </r>
       <r>   -9.9723    1.0000 </r>
       <r>   -5.7270    1.0000 </r>
       <r>   -1.0851    1.0000 </r>
       <r>    1.3199    1.0000 </r>
       <r>    2.6497    1.0000 </r>
       <r>    7.2136    0.0000 </r>
       <r>    8.6949    0.0000 </r>
       <r>    9.7372    0.0000 </r>
       <r>   11.4030    0.0000 </r>
       <r>   12.1288    0.0000 </r>
       <r>   13.8956    0.0000 </r>
       <r>   15.8942    0.0000 </r>
      </set>
      <set comment="kpoint 40">
       <r>  -10.2067    1.0000 </r>
       <r>  -10.0587    1.0000 </r>
       <r>  -10.0492    1.0000 </r>
       <r>   -9.9858    1.0000 </r>
       <r>   -9.9710    1.0000 </r>
       <r>   -6.0318    1.0000 </r>
       <r>   -0.6299    1.0000 </r>
       <r>    1.6021    1.0000 </r>
       <r>    2.9784    1.0000 </r>
       <r>    7.2613    0.0000 </r>
       <r>    8.4712    0.0000 </r>
       <r>    9.1311    0.0000 </r>
       <r>   10.8078    0.0000 </r>
       <r>   12.4069    0.0000 </r>
       <r>   14.3142    0.0000 </r>
       <r>   15.9335    0.0000 </r>
      </set>
      <set comment="kpoint 41">
       <r>  -10.2395    1.0000 </r>
       <r>  -10.0358    1.0000 </r>
       <r>  -10.0293    1.0000 </r>
       <r>  -10.0029    1.0000 </r>
       <r>   -9.9616    1.0000 </r>
       <r>   -5.7198    1.0000 </r>
       <r>   -1.0324    1.0000 </r>
       <r>    1.8772    1.0000 </r>
       <r>    2.1281    1.0000 </r>
       <r>    6.5978    0.0000 </r>
       <r>    7.0571    0.0000 </r>
       <r>   10.8392    0.0000 </r>
       <r>   12.5266    0.0000 </r>
       <r>   13.1122    0.0000 </r>
       <r>   15.6557    0.0000 </r>
       <r>   15.9571    0.0000 </r>
      </set>
      <set comment="kpoint 42">
       <r>  -10.2405    1.0000 </r>
       <r>  -10.0405    1.0000 </r>
       <r>  -10.0273    1.0000 </r>
       <r>   -9.9983    1.0000 </r>
       <r>   -9.9648    1.0000 </r>
       <r>   -5.5196    1.0000 </r>
       <r>   -1.2695    1.0000 </r>
       <r>    1.4008    1.0000 </r>
       <r>    2.0613    1.0000 </r>
       <r>    6.8488    0.0000 </r>
       <r>    7.9342    0.0000 </r>
       <r>   10.5570    0.0000 </r>
       <r>   11.8906    0.0000 </r>
       <r>   13.1390    0.0000 </r>
       <r>   15.3454    0.0000 </r>
       <r>   16.0056    0.0000 </r>
      </set>
      <set comment="kpoint 43">
       <r>  -10.2326    1.0000 </r>
       <r>  -10.0484    1.0000 </r>
       <r>  -10.0312    1.0000 </r>
       <r>   -9.9911    1.0000 </r>
       <r>   -9.9700    1.0000 </r>
       <r>   -5.5255    1.0000 </r>
       <r>   -1.2417    1.0000 </r>
       <r>    1.1039    1.0000 </r>
       <r>    2.2757    1.0000 </r>
       <r>    7.0587    0.0000 </r>
       <r>    9.0235    0.0000 </r>
       <r>   10.1096    0.0000 </r>
       <r>   11.0998    0.0000 </r>
       <r>   12.4925    0.0000 </r>
       <r>   14.2459    0.0000 </r>
       <r>   16.8866    0.0000 </r>
      </set>
      <set comment="kpoint 44">
       <r>  -10.2515    1.0000 </r>
       <r>  -10.0290    1.0000 </r>
       <r>  -10.0229    1.0000 </r>
       <r>  -10.0054    1.0000 </r>
       <r>   -9.9604    1.0000 </r>
       <r>   -5.4670    1.0000 </r>
       <r>   -1.3862    1.0000 </r>
       <r>    1.8166    1.0000 </r>
       <r>    1.8405    1.0000 </r>
       <r>    6.4802    0.0000 </r>
       <r>    6.9109    0.0000 </r>
       <r>   12.0639    0.0000 </r>
       <r>   12.2529    0.0000 </r>
       <r>   13.7946    0.0000 </r>
       <r>   15.7580    0.0000 </r>
       <r>   16.0614    0.0000 </r>
      </set>
      <set comment="kpoint 45">
       <r>  -10.2300    1.0000 </r>
       <r>  -10.0501    1.0000 </r>
       <r>  -10.0317    1.0000 </r>
       <r>   -9.9922    1.0000 </r>
       <r>   -9.9686    1.0000 </r>
       <r>   -5.6195    1.0000 </r>
       <r>   -1.1233    1.0000 </r>
       <r>    1.3575    1.0000 </r>
       <r>    2.1200    1.0000 </r>
       <r>    7.9336    0.0000 </r>
       <r>    8.0792    0.0000 </r>
       <r>    9.2305    0.0000 </r>
       <r>   11.8219    0.0000 </r>
       <r>   12.7173    0.0000 </r>
       <r>   14.6237    0.0000 </r>
       <r>   16.8061    0.0000 </r>
      </set>
      <set comment="kpoint 46">
       <r>  -10.2328    1.0000 </r>
       <r>  -10.0505    1.0000 </r>
       <r>  -10.0288    1.0000 </r>
       <r>   -9.9908    1.0000 </r>
       <r>   -9.9705    1.0000 </r>
       <r>   -5.5018    1.0000 </r>
       <r>   -1.2486    1.0000 </r>
       <r>    1.2418    1.0000 </r>
       <r>    1.9347    1.0000 </r>
       <r>    7.9925    0.0000 </r>
       <r>    8.5899    0.0000 </r>
       <r>    9.4329    0.0000 </r>
       <r>   10.8273    0.0000 </r>
       <r>   13.0857    0.0000 </r>
       <r>   15.2969    0.0000 </r>
       <r>   15.9726    0.0000 </r>
      </set>
      <set comment="kpoint 47">
       <r>  -10.2387    1.0000 </r>
       <r>  -10.0457    1.0000 </r>
       <r>  -10.0253    1.0000 </r>
       <r>   -9.9946    1.0000 </r>
       <r>   -9.9681    1.0000 </r>
       <r>   -5.4411    1.0000 </r>
       <r>   -1.3074    1.0000 </r>
       <r>    1.4875    1.0000 </r>
       <r>    1.5641    1.0000 </r>
       <r>    7.9210    0.0000 </r>
       <r>    8.0953    0.0000 </r>
       <r>    9.9738    0.0000 </r>
       <r>   10.7309    0.0000 </r>
       <r>   13.9425    0.0000 </r>
       <r>   15.8160    0.0000 </r>
       <r>   15.9758    0.0000 </r>
      </set>
     </set>
     <set comment="spin 2">
      <set comment="kpoint 1">
       <r>  -10.0942    1.0000 </r>
       <r>  -10.0942    1.0000 </r>
       <r>  -10.0942    1.0000 </r>
       <r>   -9.9781    1.0000 </r>
       <r>   -9.9781    1.0000 </r>
       <r>   -7.4011    1.0000 </r>
       <r>    4.0239    1.0000 </r>
       <r>    4.2926    0.6669 </r>
       <r>    4.2926    0.6669 </r>
       <r>    4.2926    0.6669 </r>
       <r>    8.1914    0.0000 </r>
       <r>    8.1914    0.0000 </r>
       <r>    8.1914    0.0000 </r>
       <r>   11.7436    0.0000 </r>
       <r>   13.9041    0.0000 </r>
       <r>   13.9041    0.0000 </r>
      </set>
      <set comment="kpoint 2">
       <r>  -10.1057    1.0000 </r>
       <r>  -10.0907    1.0000 </r>
       <r>  -10.0907    1.0000 </r>
       <r>   -9.9782    1.0000 </r>
       <r>   -9.9782    1.0000 </r>
       <r>   -7.3015    1.0000 </r>
       <r>    2.7745    1.0000 </r>
       <r>    4.1692    1.0000 </r>
       <r>    4.1693    1.0000 </r>
       <r>    5.1933    0.0000 </r>
       <r>    8.2487    0.0000 </r>
       <r>    8.3747    0.0000 </r>
       <r>    8.3747    0.0000 </r>
       <r>   12.3236    0.0000 </r>
       <r>   13.2218    0.0000 </r>
       <r>   13.2218    0.0000 </r>
      </set>
      <set comment="kpoint 3">
       <r>  -10.1345    1.0000 </r>
       <r>  -10.0821    1.0000 </r>
       <r>  -10.0821    1.0000 </r>
       <r>   -9.9778    1.0000 </r>
       <r>   -9.9778    1.0000 </r>
       <r>   -7.0188    1.0000 </r>
       <r>    1.3359    1.0000 </r>
       <r>    3.8911    1.0000 </r>
       <r>    3.8911    1.0000 </r>
       <r>    5.5338    0.0000 </r>
       <r>    8.7450    0.0000 </r>
       <r>    8.7450    0.0000 </r>
       <r>    8.8561    0.0000 </r>
       <r>   12.7732    0.0000 </r>
       <r>   12.7732    0.0000 </r>
       <r>   12.8075    0.0000 </r>
      </set>
      <set comment="kpoint 4">
       <r>  -10.1680    1.0000 </r>
       <r>  -10.0730    1.0000 </r>
       <r>  -10.0730    1.0000 </r>
       <r>   -9.9756    1.0000 </r>
       <r>   -9.9756    1.0000 </r>
       <r>   -6.6076    1.0000 </r>
       <r>    0.0229    1.0000 </r>
       <r>    3.6066    1.0000 </r>
       <r>    3.6066    1.0000 </r>
       <r>    5.4305    0.0000 </r>
       <r>    8.9677    0.0000 </r>
       <r>    8.9677    0.0000 </r>
       <r>    9.9858    0.0000 </r>
       <r>   12.4585    0.0000 </r>
       <r>   13.0540    0.0000 </r>
       <r>   13.0540    0.0000 </r>
      </set>
      <set comment="kpoint 5">
       <r>  -10.1938    1.0000 </r>
       <r>  -10.0671    1.0000 </r>
       <r>  -10.0671    1.0000 </r>
       <r>   -9.9723    1.0000 </r>
       <r>   -9.9723    1.0000 </r>
       <r>   -6.1923    1.0000 </r>
       <r>   -0.9600    1.0000 </r>
       <r>    3.4082    1.0000 </r>
       <r>    3.4082    1.0000 </r>
       <r>    5.2824    0.0000 </r>
       <r>    8.9788    0.0000 </r>
       <r>    8.9788    0.0000 </r>
       <r>   10.9208    0.0000 </r>
       <r>   12.6205    0.0000 </r>
       <r>   14.0204    0.0000 </r>
       <r>   14.0204    0.0000 </r>
      </set>
      <set comment="kpoint 6">
       <r>  -10.2033    1.0000 </r>
       <r>  -10.0652    1.0000 </r>
       <r>  -10.0652    1.0000 </r>
       <r>   -9.9707    1.0000 </r>
       <r>   -9.9707    1.0000 </r>
       <r>   -6.0012    1.0000 </r>
       <r>   -1.3444    1.0000 </r>
       <r>    3.3381    1.0000 </r>
       <r>    3.3381    1.0000 </r>
       <r>    5.2246    0.0000 </r>
       <r>    8.9547    0.0000 </r>
       <r>    8.9547    0.0000 </r>
       <r>   11.1173    0.0000 </r>
       <r>   13.2245    0.0000 </r>
       <r>   14.9576    0.0000 </r>
       <r>   14.9576    0.0000 </r>
      </set>
      <set comment="kpoint 7">
       <r>  -10.1133    1.0000 </r>
       <r>  -10.0874    1.0000 </r>
       <r>  -10.0874    1.0000 </r>
       <r>   -9.9807    1.0000 </r>
       <r>   -9.9761    1.0000 </r>
       <r>   -7.2685    1.0000 </r>
       <r>    2.6894    1.0000 </r>
       <r>    3.9443    1.0000 </r>
       <r>    3.9443    1.0000 </r>
       <r>    5.6190    0.0000 </r>
       <r>    7.7231    0.0000 </r>
       <r>    8.6864    0.0000 </r>
       <r>    8.6864    0.0000 </r>
       <r>   12.2707    0.0000 </r>
       <r>   12.6157    0.0000 </r>
       <r>   14.0115    0.0000 </r>
      </set>
      <set comment="kpoint 8">
       <r>  -10.1369    1.0000 </r>
       <r>  -10.0802    1.0000 </r>
       <r>  -10.0786    1.0000 </r>
       <r>   -9.9829    1.0000 </r>
       <r>   -9.9742    1.0000 </r>
       <r>   -7.0469    1.0000 </r>
       <r>    1.6288    1.0000 </r>
       <r>    3.6186    1.0000 </r>
       <r>    3.6598    1.0000 </r>
       <r>    6.1374    0.0000 </r>
       <r>    7.6684    0.0000 </r>
       <r>    9.1680    0.0000 </r>
       <r>    9.1828    0.0000 </r>
       <r>   11.7813    0.0000 </r>
       <r>   13.4205    0.0000 </r>
       <r>   13.6651    0.0000 </r>
      </set>
      <set comment="kpoint 9">
       <r>  -10.1667    1.0000 </r>
       <r>  -10.0725    1.0000 </r>
       <r>  -10.0690    1.0000 </r>
       <r>   -9.9830    1.0000 </r>
       <r>   -9.9719    1.0000 </r>
       <r>   -6.6759    1.0000 </r>
       <r>    0.3834    1.0000 </r>
       <r>    3.2934    1.0000 </r>
       <r>    3.3375    1.0000 </r>
       <r>    6.1608    0.0000 </r>
       <r>    8.2035    0.0000 </r>
       <r>    9.4701    0.0000 </r>
       <r>    9.6323    0.0000 </r>
       <r>   12.0825    0.0000 </r>
       <r>   13.4171    0.0000 </r>
       <r>   13.7222    0.0000 </r>
      </set>
      <set comment="kpoint 10">
       <r>  -10.1926    1.0000 </r>
       <r>  -10.0664    1.0000 </r>
       <r>  -10.0625    1.0000 </r>
       <r>   -9.9797    1.0000 </r>
       <r>   -9.9697    1.0000 </r>
       <r>   -6.2504    1.0000 </r>
       <r>   -0.6746    1.0000 </r>
       <r>    2.9455    1.0000 </r>
       <r>    3.1794    1.0000 </r>
       <r>    6.0146    0.0000 </r>
       <r>    8.5561    0.0000 </r>
       <r>    9.4519    0.0000 </r>
       <r>   10.3883    0.0000 </r>
       <r>   12.6964    0.0000 </r>
       <r>   13.6344    0.0000 </r>
       <r>   14.4888    0.0000 </r>
      </set>
      <set comment="kpoint 11">
       <r>  -10.2060    1.0000 </r>
       <r>  -10.0634    1.0000 </r>
       <r>  -10.0604    1.0000 </r>
       <r>   -9.9750    1.0000 </r>
       <r>   -9.9699    1.0000 </r>
       <r>   -5.9633    1.0000 </r>
       <r>   -1.2621    1.0000 </r>
       <r>    2.7105    1.0000 </r>
       <r>    3.1742    1.0000 </r>
       <r>    5.9182    0.0000 </r>
       <r>    8.6467    0.0000 </r>
       <r>    9.3005    0.0000 </r>
       <r>   11.2140    0.0000 </r>
       <r>   13.0644    0.0000 </r>
       <r>   14.3917    0.0000 </r>
       <r>   14.9933    0.0000 </r>
      </set>
      <set comment="kpoint 12">
       <r>  -10.2025    1.0000 </r>
       <r>  -10.0634    1.0000 </r>
       <r>  -10.0623    1.0000 </r>
       <r>   -9.9736    1.0000 </r>
       <r>   -9.9724    1.0000 </r>
       <r>   -6.0287    1.0000 </r>
       <r>   -1.1342    1.0000 </r>
       <r>    2.6333    1.0000 </r>
       <r>    3.3197    1.0000 </r>
       <r>    5.9235    0.0000 </r>
       <r>    8.7761    0.0000 </r>
       <r>    9.1680    0.0000 </r>
       <r>   11.1150    0.0000 </r>
       <r>   13.1007    0.0000 </r>
       <r>   13.7365    0.0000 </r>
       <r>   14.8264    0.0000 </r>
      </set>
      <set comment="kpoint 13">
       <r>  -10.1831    1.0000 </r>
       <r>  -10.0683    1.0000 </r>
       <r>  -10.0664    1.0000 </r>
       <r>   -9.9784    1.0000 </r>
       <r>   -9.9727    1.0000 </r>
       <r>   -6.3903    1.0000 </r>
       <r>   -0.3560    1.0000 </r>
       <r>    2.7380    1.0000 </r>
       <r>    3.5851    1.0000 </r>
       <r>    6.0166    0.0000 </r>
       <r>    8.9275    0.0000 </r>
       <r>    9.0353    0.0000 </r>
       <r>   10.1402    0.0000 </r>
       <r>   12.6222    0.0000 </r>
       <r>   12.9943    0.0000 </r>
       <r>   14.4587    0.0000 </r>
      </set>
      <set comment="kpoint 14">
       <r>  -10.1537    1.0000 </r>
       <r>  -10.0778    1.0000 </r>
       <r>  -10.0731    1.0000 </r>
       <r>   -9.9809    1.0000 </r>
       <r>   -9.9745    1.0000 </r>
       <r>   -6.8131    1.0000 </r>
       <r>    0.7796    1.0000 </r>
       <r>    3.0428    1.0000 </r>
       <r>    3.9021    1.0000 </r>
       <r>    6.0820    0.0000 </r>
       <r>    8.6017    0.0000 </r>
       <r>    8.7721    0.0000 </r>
       <r>    9.4655    0.0000 </r>
       <r>   12.1604    0.0000 </r>
       <r>   12.9451    0.0000 </r>
       <r>   13.8462    0.0000 </r>
      </set>
      <set comment="kpoint 15">
       <r>  -10.1241    1.0000 </r>
       <r>  -10.0868    1.0000 </r>
       <r>  -10.0824    1.0000 </r>
       <r>   -9.9803    1.0000 </r>
       <r>   -9.9763    1.0000 </r>
       <r>   -7.1408    1.0000 </r>
       <r>    1.9576    1.0000 </r>
       <r>    3.5712    1.0000 </r>
       <r>    4.1473    1.0000 </r>
       <r>    5.7809    0.0000 </r>
       <r>    8.1487    0.0000 </r>
       <r>    8.4443    0.0000 </r>
       <r>    9.0547    0.0000 </r>
       <r>   12.4317    0.0000 </r>
       <r>   12.8989    0.0000 </r>
       <r>   13.1678    0.0000 </r>
      </set>
      <set comment="kpoint 16">
       <r>  -10.1587    1.0000 </r>
       <r>  -10.0692    1.0000 </r>
       <r>  -10.0692    1.0000 </r>
       <r>   -9.9885    1.0000 </r>
       <r>   -9.9709    1.0000 </r>
       <r>   -6.8925    1.0000 </r>
       <r>    1.2958    1.0000 </r>
       <r>    3.2552    1.0000 </r>
       <r>    3.2552    1.0000 </r>
       <r>    6.7458    0.0000 </r>
       <r>    6.9579    0.0000 </r>
       <r>    9.8143    0.0000 </r>
       <r>    9.8143    0.0000 </r>
       <r>   11.0770    0.0000 </r>
       <r>   14.2579    0.0000 </r>
       <r>   14.3282    0.0000 </r>
      </set>
      <set comment="kpoint 17">
       <r>  -10.1844    1.0000 </r>
       <r>  -10.0601    1.0000 </r>
       <r>  -10.0584    1.0000 </r>
       <r>   -9.9920    1.0000 </r>
       <r>   -9.9680    1.0000 </r>
       <r>   -6.5816    1.0000 </r>
       <r>    0.4488    1.0000 </r>
       <r>    2.8302    1.0000 </r>
       <r>    2.9523    1.0000 </r>
       <r>    6.7553    0.0000 </r>
       <r>    7.2051    0.0000 </r>
       <r>    9.9226    0.0000 </r>
       <r>   10.3229    0.0000 </r>
       <r>   11.6422    0.0000 </r>
       <r>   14.4324    0.0000 </r>
       <r>   14.8707    0.0000 </r>
      </set>
      <set comment="kpoint 18">
       <r>  -10.2054    1.0000 </r>
       <r>  -10.0558    1.0000 </r>
       <r>  -10.0508    1.0000 </r>
       <r>   -9.9910    1.0000 </r>
       <r>   -9.9662    1.0000 </r>
       <r>   -6.1854    1.0000 </r>
       <r>   -0.4590    1.0000 </r>
       <r>    2.3108    1.0000 </r>
       <r>    2.7904    1.0000 </r>
       <r>    6.6510    0.0000 </r>
       <r>    7.9845    0.0000 </r>
       <r>    9.7618    0.0000 </r>
       <r>   10.4118    0.0000 </r>
       <r>   12.9028    0.0000 </r>
       <r>   14.7729    0.0000 </r>
       <r>   15.0049    0.0000 </r>
      </set>
      <set comment="kpoint 19">
       <r>  -10.2165    1.0000 </r>
       <r>  -10.0554    1.0000 </r>
       <r>  -10.0481    1.0000 </r>
       <r>   -9.9859    1.0000 </r>
       <r>   -9.9676    1.0000 </r>
       <r>   -5.8551    1.0000 </r>
       <r>   -1.0963    1.0000 </r>
       <r>    1.8865    1.0000 </r>
       <r>    2.8008    1.0000 </r>
       <r>    6.5931    0.0000 </r>
       <r>    8.5599    0.0000 </r>
       <r>   10.2099    0.0000 </r>
       <r>   10.3141    0.0000 </r>
       <r>   13.2570    0.0000 </r>
       <r>   14.9993    0.0000 </r>
       <r>   15.1169    0.0000 </r>
      </set>
      <set comment="kpoint 20">
       <r>  -10.2150    1.0000 </r>
       <r>  -10.0571    1.0000 </r>
       <r>  -10.0502    1.0000 </r>
       <r>   -9.9797    1.0000 </r>
       <r>   -9.9728    1.0000 </r>
       <r>   -5.8033    1.0000 </r>
       <r>   -1.1830    1.0000 </r>
       <r>    1.6652    1.0000 </r>
       <r>    2.9801    1.0000 </r>
       <r>    6.6379    0.0000 </r>
       <r>    8.7436    0.0000 </r>
       <r>    9.9376    0.0000 </r>
       <r>   11.0239    0.0000 </r>
       <r>   12.8430    0.0000 </r>
       <r>   13.6975    0.0000 </r>
       <r>   14.7786    0.0000 </r>
      </set>
      <set comment="kpoint 21">
       <r>  -10.2013    1.0000 </r>
       <r>  -10.0601    1.0000 </r>
       <r>  -10.0571    1.0000 </r>
       <r>   -9.9788    1.0000 </r>
       <r>   -9.9753    1.0000 </r>
       <r>   -6.0717    1.0000 </r>
       <r>   -0.6909    1.0000 </r>
       <r>    1.7215    1.0000 </r>
       <r>    3.2906    1.0000 </r>
       <r>    6.7380    0.0000 </r>
       <r>    8.9477    0.0000 </r>
       <r>    9.6203    0.0000 </r>
       <r>   10.0483    0.0000 </r>
       <r>   12.5300    0.0000 </r>
       <r>   13.8424    0.0000 </r>
       <r>   15.2232    0.0000 </r>
      </set>
      <set comment="kpoint 22">
       <r>  -10.1789    1.0000 </r>
       <r>  -10.0678    1.0000 </r>
       <r>  -10.0651    1.0000 </r>
       <r>   -9.9818    1.0000 </r>
       <r>   -9.9736    1.0000 </r>
       <r>   -6.4673    1.0000 </r>
       <r>    0.0730    1.0000 </r>
       <r>    2.1629    1.0000 </r>
       <r>    3.6477    1.0000 </r>
       <r>    6.6688    0.0000 </r>
       <r>    8.8828    0.0000 </r>
       <r>    9.1774    0.0000 </r>
       <r>    9.3593    0.0000 </r>
       <r>   12.0125    0.0000 </r>
       <r>   14.0277    0.0000 </r>
       <r>   14.8021    0.0000 </r>
      </set>
      <set comment="kpoint 23">
       <r>  -10.2086    1.0000 </r>
       <r>  -10.0461    1.0000 </r>
       <r>  -10.0461    1.0000 </r>
       <r>   -9.9994    1.0000 </r>
       <r>   -9.9644    1.0000 </r>
       <r>   -6.3404    1.0000 </r>
       <r>    0.0180    1.0000 </r>
       <r>    2.6177    1.0000 </r>
       <r>    2.6177    1.0000 </r>
       <r>    6.3063    0.0000 </r>
       <r>    6.9833    0.0000 </r>
       <r>   11.1818    0.0000 </r>
       <r>   11.1818    0.0000 </r>
       <r>   11.2811    0.0000 </r>
       <r>   14.8269    0.0000 </r>
       <r>   16.0625    0.0000 </r>
      </set>
      <set comment="kpoint 24">
       <r>  -10.2271    1.0000 </r>
       <r>  -10.0393    1.0000 </r>
       <r>  -10.0372    1.0000 </r>
       <r>  -10.0019    1.0000 </r>
       <r>   -9.9623    1.0000 </r>
       <r>   -6.0071    1.0000 </r>
       <r>   -0.6023    1.0000 </r>
       <r>    2.1684    1.0000 </r>
       <r>    2.4256    1.0000 </r>
       <r>    6.3524    0.0000 </r>
       <r>    7.0657    0.0000 </r>
       <r>   10.8663    0.0000 </r>
       <r>   11.5924    0.0000 </r>
       <r>   12.8139    0.0000 </r>
       <r>   15.2905    0.0000 </r>
       <r>   16.2358    0.0000 </r>
      </set>
      <set comment="kpoint 25">
       <r>  -10.2345    1.0000 </r>
       <r>  -10.0410    1.0000 </r>
       <r>  -10.0338    1.0000 </r>
       <r>   -9.9982    1.0000 </r>
       <r>   -9.9637    1.0000 </r>
       <r>   -5.6989    1.0000 </r>
       <r>   -1.0888    1.0000 </r>
       <r>    1.5679    1.0000 </r>
       <r>    2.4146    1.0000 </r>
       <r>    6.4320    0.0000 </r>
       <r>    7.9449    0.0000 </r>
       <r>   10.6479    0.0000 </r>
       <r>   11.4436    0.0000 </r>
       <r>   13.4192    0.0000 </r>
       <r>   15.3423    0.0000 </r>
       <r>   16.0199    0.0000 </r>
      </set>
      <set comment="kpoint 26">
       <r>  -10.2305    1.0000 </r>
       <r>  -10.0470    1.0000 </r>
       <r>  -10.0363    1.0000 </r>
       <r>   -9.9907    1.0000 </r>
       <r>   -9.9691    1.0000 </r>
       <r>   -5.5875    1.0000 </r>
       <r>   -1.2304    1.0000 </r>
       <r>    1.1538    1.0000 </r>
       <r>    2.5860    1.0000 </r>
       <r>    6.5620    0.0000 </r>
       <r>    9.0111    0.0000 </r>
       <r>   10.8193    0.0000 </r>
       <r>   11.0188    0.0000 </r>
       <r>   12.1806    0.0000 </r>
       <r>   13.9665    0.0000 </r>
       <r>   16.4408    0.0000 </r>
      </set>
      <set comment="kpoint 27">
       <r>  -10.2181    1.0000 </r>
       <r>  -10.0539    1.0000 </r>
       <r>  -10.0447    1.0000 </r>
       <r>   -9.9821    1.0000 </r>
       <r>   -9.9755    1.0000 </r>
       <r>   -5.7511    1.0000 </r>
       <r>   -1.0189    1.0000 </r>
       <r>    1.1538    1.0000 </r>
       <r>    2.9059    1.0000 </r>
       <r>    6.7719    0.0000 </r>
       <r>    9.3684    0.0000 </r>
       <r>   10.3929    0.0000 </r>
       <r>   10.4296    0.0000 </r>
       <r>   12.3959    0.0000 </r>
       <r>   12.9329    0.0000 </r>
       <r>   16.5151    0.0000 </r>
      </set>
      <set comment="kpoint 28">
       <r>  -10.2453    1.0000 </r>
       <r>  -10.0271    1.0000 </r>
       <r>  -10.0271    1.0000 </r>
       <r>  -10.0089    1.0000 </r>
       <r>   -9.9591    1.0000 </r>
       <r>   -5.7629    1.0000 </r>
       <r>   -1.0011    1.0000 </r>
       <r>    2.1934    1.0000 </r>
       <r>    2.1934    1.0000 </r>
       <r>    5.9679    0.0000 </r>
       <r>    6.5776    0.0000 </r>
       <r>   12.5096    0.0000 </r>
       <r>   12.5822    0.0000 </r>
       <r>   12.5822    0.0000 </r>
       <r>   15.4047    0.0000 </r>
       <r>   16.7963    0.0000 </r>
      </set>
      <set comment="kpoint 29">
       <r>  -10.2516    1.0000 </r>
       <r>  -10.0265    1.0000 </r>
       <r>  -10.0233    1.0000 </r>
       <r>  -10.0080    1.0000 </r>
       <r>   -9.9592    1.0000 </r>
       <r>   -5.5481    1.0000 </r>
       <r>   -1.3039    1.0000 </r>
       <r>    1.8139    1.0000 </r>
       <r>    2.1426    1.0000 </r>
       <r>    6.1089    0.0000 </r>
       <r>    6.7803    0.0000 </r>
       <r>   12.2284    0.0000 </r>
       <r>   12.7248    0.0000 </r>
       <r>   13.4996    0.0000 </r>
       <r>   15.6116    0.0000 </r>
       <r>   16.0870    0.0000 </r>
      </set>
      <set comment="kpoint 30">
       <r>  -10.2451    1.0000 </r>
       <r>  -10.0351    1.0000 </r>
       <r>  -10.0265    1.0000 </r>
       <r>  -10.0011    1.0000 </r>
       <r>   -9.9635    1.0000 </r>
       <r>   -5.4779    1.0000 </r>
       <r>   -1.3439    1.0000 </r>
       <r>    1.2948    1.0000 </r>
       <r>    2.2824    1.0000 </r>
       <r>    6.2991    0.0000 </r>
       <r>    7.8688    0.0000 </r>
       <r>   11.8214    0.0000 </r>
       <r>   12.0724    0.0000 </r>
       <r>   12.4889    0.0000 </r>
       <r>   14.6559    0.0000 </r>
       <r>   16.6954    0.0000 </r>
      </set>
      <set comment="kpoint 31">
       <r>  -10.2585    1.0000 </r>
       <r>  -10.0197    1.0000 </r>
       <r>  -10.0197    1.0000 </r>
       <r>  -10.0126    1.0000 </r>
       <r>   -9.9571    1.0000 </r>
       <r>   -5.4828    1.0000 </r>
       <r>   -1.4305    1.0000 </r>
       <r>    2.0460    1.0000 </r>
       <r>    2.0460    1.0000 </r>
       <r>    5.8781    0.0000 </r>
       <r>    6.3594    0.0000 </r>
       <r>   13.3403    0.0000 </r>
       <r>   13.4141    0.0000 </r>
       <r>   13.4141    0.0000 </r>
       <r>   15.7187    0.0000 </r>
       <r>   16.3834    0.0000 </r>
      </set>
      <set comment="kpoint 32">
       <r>  -10.1620    1.0000 </r>
       <r>  -10.0720    1.0000 </r>
       <r>  -10.0685    1.0000 </r>
       <r>   -9.9859    1.0000 </r>
       <r>   -9.9717    1.0000 </r>
       <r>   -6.7800    1.0000 </r>
       <r>    0.8521    1.0000 </r>
       <r>    2.8646    1.0000 </r>
       <r>    3.5611    1.0000 </r>
       <r>    6.6606    0.0000 </r>
       <r>    7.5728    0.0000 </r>
       <r>    9.4994    0.0000 </r>
       <r>    9.6088    0.0000 </r>
       <r>   11.6936    0.0000 </r>
       <r>   13.7284    0.0000 </r>
       <r>   14.3108    0.0000 </r>
      </set>
      <set comment="kpoint 33">
       <r>  -10.1876    1.0000 </r>
       <r>  -10.0645    1.0000 </r>
       <r>  -10.0598    1.0000 </r>
       <r>   -9.9858    1.0000 </r>
       <r>   -9.9700    1.0000 </r>
       <r>   -6.3932    1.0000 </r>
       <r>   -0.1022    1.0000 </r>
       <r>    2.3301    1.0000 </r>
       <r>    3.2874    1.0000 </r>
       <r>    6.7785    0.0000 </r>
       <r>    8.1103    0.0000 </r>
       <r>    9.4218    0.0000 </r>
       <r>   10.0399    0.0000 </r>
       <r>   12.2542    0.0000 </r>
       <r>   14.0925    0.0000 </r>
       <r>   14.8671    0.0000 </r>
      </set>
      <set comment="kpoint 34">
       <r>  -10.2065    1.0000 </r>
       <r>  -10.0607    1.0000 </r>
       <r>  -10.0536    1.0000 </r>
       <r>   -9.9821    1.0000 </r>
       <r>   -9.9700    1.0000 </r>
       <r>   -6.0062    1.0000 </r>
       <r>   -0.9139    1.0000 </r>
       <r>    2.0576    1.0000 </r>
       <r>    3.0264    1.0000 </r>
       <r>    6.6953    0.0000 </r>
       <r>    8.4203    0.0000 </r>
       <r>    9.6982    0.0000 </r>
       <r>   10.5365    0.0000 </r>
       <r>   12.9674    0.0000 </r>
       <r>   14.1947    0.0000 </r>
       <r>   14.9919    0.0000 </r>
      </set>
      <set comment="kpoint 35">
       <r>  -10.2135    1.0000 </r>
       <r>  -10.0598    1.0000 </r>
       <r>  -10.0515    1.0000 </r>
       <r>   -9.9790    1.0000 </r>
       <r>   -9.9711    1.0000 </r>
       <r>   -5.8302    1.0000 </r>
       <r>   -1.2438    1.0000 </r>
       <r>    1.9771    1.0000 </r>
       <r>    2.9231    1.0000 </r>
       <r>    6.6546    0.0000 </r>
       <r>    8.4133    0.0000 </r>
       <r>    9.8068    0.0000 </r>
       <r>   11.2215    0.0000 </r>
       <r>   12.8206    0.0000 </r>
       <r>   14.2470    0.0000 </r>
       <r>   15.0166    0.0000 </r>
      </set>
      <set comment="kpoint 36">
       <r>  -10.2065    1.0000 </r>
       <r>  -10.0522    1.0000 </r>
       <r>  -10.0477    1.0000 </r>
[...]
       </set>
       <set comment="band 12">
        <r>  0.0125  0.0905  0.0667  0.0209  0.0112  0.0138  0.0039  0.0024  0.0074 </r>
        <r>  0.0338  0.0703  0.0439  0.0007  0.0049  0.0214  0.0048  0.0004  0.0079 </r>
       </set>
       <set comment="band 13">
        <r>  0.0249  0.0367  0.0933  0.0507  0.0066  0.0008  0.0019  0.0108  0.0071 </r>
        <r>  0.0088  0.0193  0.0594  0.0806  0.0030  0.0055  0.0064  0.0180  0.0161 </r>
       </set>
       <set comment="band 14">
        <r>  0.0049  0.0514  0.0724  0.0241  0.0028  0.0183  0.0030  0.0049  0.0325 </r>
        <r>  0.0108  0.0592  0.0540  0.1170  0.0042  0.0203  0.0005  0.0038  0.0033 </r>
       </set>
       <set comment="band 15">
        <r>  0.0020  0.0134  0.0690  0.0019  0.0020  0.0297  0.0012  0.0428  0.0035 </r>
        <r>  0.0032  0.0008  0.0150  0.0663  0.0006  0.0386  0.0027  0.0609  0.0010 </r>
       </set>
       <set comment="band 16">
        <r>  0.0013  0.0275  0.0118  0.1487  0.0087  0.0034  0.0199  0.0143  0.0025 </r>
        <r>  0.0259  0.0081  0.0026  0.0240  0.0003  0.0050  0.0010  0.0597  0.0788 </r>
       </set>
      </set>
      <set comment="kpoint 43">
       <set comment="band 1">
        <r>  0.0001  0.0006  0.0001  0.0008  0.1493  0.0154  0.4717  0.0307  0.2536 </r>
        <r>  0.0361  0.0000  0.0000  0.0000  0.0000  0.0000  0.0000  0.0000  0.0000 </r>
       </set>
       <set comment="band 2">
        <r>  0.0000  0.0001  0.0000  0.0000  0.0562  0.0605  0.3457  0.1209  0.3919 </r>
        <r>  0.0001  0.0009  0.0006  0.0008  0.0002  0.0001  0.0000  0.0001  0.0003 </r>
       </set>
       <set comment="band 3">
        <r>  0.0000  0.0000  0.0001  0.0000  0.0512  0.2511  0.0255  0.4822  0.1668 </r>
        <r>  0.0000  0.0004  0.0019  0.0005  0.0000  0.0001  0.0000  0.0002  0.0000 </r>
       </set>
       <set comment="band 4">
        <r>  0.0000  0.0000  0.0000  0.0000  0.6677  0.0388  0.0984  0.0316  0.1419 </r>
        <r>  0.0000  0.0001  0.0000  0.0001  0.0001  0.0000  0.0002  0.0000  0.0001 </r>
       </set>
       <set comment="band 5">
        <r>  0.0000  0.0000  0.0000  0.0000  0.0437  0.6127  0.0079  0.3110  0.0055 </r>
        <r>  0.0000  0.0000  0.0001  0.0000  0.0000  0.0000  0.0000  0.0001  0.0000 </r>
       </set>
       <set comment="band 6">
        <r>  0.0124  0.0182  0.0019  0.0216  0.0128  0.0011  0.0315  0.0023  0.0233 </r>
        <r>  0.5665  0.0003  0.0001  0.0002  0.0000  0.0000  0.0001  0.0000  0.0000 </r>
       </set>
       <set comment="band 7">
        <r>  0.4325  0.0026  0.0000  0.0048  0.0011  0.0002  0.0000  0.0001  0.0009 </r>
        <r>  0.0092  0.0646  0.0049  0.0748  0.0011  0.0001  0.0017  0.0001  0.0018 </r>
       </set>
       <set comment="band 8">
        <r>  0.0019  0.0900  0.0007  0.0675  0.0029  0.0003  0.0052  0.0002  0.0011 </r>
        <r>  0.0005  0.1328  0.0003  0.1126  0.0005  0.0000  0.0006  0.0000  0.0001 </r>
       </set>
       <set comment="band 9">
        <r>  0.0026  0.0055  0.1478  0.0110  0.0010  0.0053  0.0006  0.0070  0.0003 </r>
        <r>  0.0007  0.0054  0.2871  0.0093  0.0002  0.0007  0.0005  0.0008  0.0001 </r>
       </set>
       <set comment="band 10">
        <r>  0.1086  0.0280  0.0107  0.0561  0.0009  0.0010  0.0323  0.0013  0.0008 </r>
        <r>  0.0382  0.0215  0.0432  0.0421  0.0009  0.0000  0.0267  0.0000  0.0002 </r>
       </set>
       <set comment="band 11">
        <r>  0.1147  0.0071  0.0000  0.0140  0.0092  0.0019  0.0098  0.0020  0.0041 </r>
        <r>  0.0009  0.1607  0.0003  0.1216  0.0200  0.0007  0.0002  0.0007  0.0070 </r>
       </set>
       <set comment="band 12">
        <r>  0.0117  0.0454  0.1119  0.0519  0.0020  0.0062  0.0016  0.0110  0.0153 </r>
        <r>  0.0453  0.0185  0.0652  0.0235  0.0006  0.0167  0.0000  0.0116  0.0036 </r>
       </set>
       <set comment="band 13">
        <r>  0.0063  0.1024  0.0262  0.0587  0.0306  0.0068  0.0003  0.0045  0.0054 </r>
        <r>  0.0182  0.0090  0.0011  0.0179  0.0117  0.0050  0.0161  0.0090  0.0189 </r>
       </set>
       <set comment="band 14">
        <r>  0.0032  0.0346  0.1001  0.0370  0.0042  0.0060  0.0090  0.0115  0.0251 </r>
        <r>  0.0160  0.0576  0.0728  0.0727  0.0033  0.0120  0.0001  0.0102  0.0114 </r>
       </set>
       <set comment="band 15">
        <r>  0.0022  0.0138  0.0575  0.0069  0.0062  0.0484  0.0001  0.0374  0.0027 </r>
        <r>  0.0071  0.0127  0.0031  0.0149  0.0005  0.0466  0.0043  0.0570  0.0039 </r>
       </set>
       <set comment="band 16">
        <r>  0.0062  0.1024  0.0036  0.0777  0.0026  0.0041  0.0097  0.0058  0.0008 </r>
        <r>  0.0004  0.0442  0.0014  0.0735  0.0108  0.0049  0.0020  0.0086  0.0384 </r>
       </set>
      </set>
      <set comment="kpoint 44">
       <set comment="band 1">
        <r>  0.0000  0.0005  0.0001  0.0008  0.1944  0.0100  0.6448  0.0200  0.0506 </r>
        <r>  0.0360  0.0000  0.0000  0.0000  0.0001  0.0000  0.0000  0.0000  0.0000 </r>
       </set>
       <set comment="band 2">
        <r>  0.0000  0.0000  0.0001  0.0000  0.0652  0.1521  0.0489  0.3042  0.4074 </r>
        <r>  0.0002  0.0007  0.0010  0.0003  0.0001  0.0001  0.0000  0.0002  0.0003 </r>
       </set>
       <set comment="band 3">
        <r>  0.0000  0.0001  0.0001  0.0000  0.1588  0.1367  0.0428  0.2686  0.3704 </r>
        <r>  0.0000  0.0008  0.0009  0.0008  0.0000  0.0001  0.0000  0.0001  0.0002 </r>
       </set>
       <set comment="band 4">
        <r>  0.0001  0.0000  0.0000  0.0000  0.5442  0.0292  0.2005  0.0582  0.1444 </r>
        <r>  0.0000  0.0002  0.0001  0.0004  0.0001  0.0000  0.0002  0.0001  0.0001 </r>
       </set>
       <set comment="band 5">
        <r>  0.0000  0.0000  0.0000  0.0000  0.0013  0.6520  0.0004  0.3268  0.0016 </r>
        <r>  0.0000  0.0000  0.0000  0.0000  0.0000  0.0000  0.0000  0.0000  0.0000 </r>
       </set>
       <set comment="band 6">
        <r>  0.0000  0.0155  0.0020  0.0291  0.0141  0.0012  0.0464  0.0025  0.0050 </r>
        <r>  0.5756  0.0000  0.0000  0.0000  0.0001  0.0000  0.0000  0.0000  0.0000 </r>
       </set>
       <set comment="band 7">
        <r>  0.4392  0.0000  0.0001  0.0000  0.0033  0.0000  0.0012  0.0000  0.0004 </r>
        <r>  0.0000  0.0486  0.0051  0.0920  0.0009  0.0001  0.0028  0.0002  0.0003 </r>
       </set>
       <set comment="band 8">
        <r>  0.0041  0.0533  0.0799  0.0266  0.0034  0.0018  0.0011  0.0025  0.0033 </r>
        <r>  0.0000  0.0969  0.1317  0.0620  0.0001  0.0001  0.0002  0.0001  0.0002 </r>
       </set>
       <set comment="band 9">
        <r>  0.0000  0.0596  0.0763  0.0429  0.0003  0.0008  0.0001  0.0017  0.0022 </r>
        <r>  0.0009  0.0931  0.1396  0.0465  0.0008  0.0002  0.0003  0.0003  0.0004 </r>
       </set>
       <set comment="band 10">
        <r>  0.0000  0.0508  0.0063  0.0953  0.0090  0.0003  0.0301  0.0007  0.0020 </r>
        <r>  0.0578  0.0123  0.0185  0.0062  0.0165  0.0000  0.0062  0.0000  0.0021 </r>
       </set>
       <set comment="band 11">
        <r>  0.1965  0.0046  0.0068  0.0023  0.0252  0.0002  0.0094  0.0003  0.0034 </r>
        <r>  0.0000  0.0507  0.0204  0.0811  0.0077  0.0000  0.0261  0.0000  0.0010 </r>
       </set>
       <set comment="band 12">
        <r>  0.0000  0.0707  0.0899  0.0515  0.0025  0.0059  0.0019  0.0118  0.0157 </r>
        <r>  0.0300  0.0568  0.0851  0.0284  0.0008  0.0161  0.0002  0.0091  0.0020 </r>
       </set>
       <set comment="band 13">
        <r>  0.0502  0.0443  0.0664  0.0221  0.0076  0.0034  0.0028  0.0018  0.0011 </r>
        <r>  0.0000  0.0731  0.0259  0.1202  0.0044  0.0067  0.0074  0.0134  0.0182 </r>
       </set>
       <set comment="band 14">
        <r>  0.0089  0.0562  0.0843  0.0281  0.0027  0.0082  0.0000  0.0159  0.0210 </r>
        <r>  0.0000  0.1063  0.0924  0.1202  0.0005  0.0001  0.0016  0.0003  0.0004 </r>
       </set>
       <set comment="band 15">
        <r>  0.0000  0.0615  0.0790  0.0441  0.0036  0.0057  0.0058  0.0115  0.0155 </r>
        <r>  0.0009  0.0037  0.0056  0.0019  0.0085  0.0561  0.0001  0.0658  0.0671 </r>
       </set>
       <set comment="band 16">
        <r>  0.0000  0.0438  0.0000  0.0852  0.0047  0.0007  0.0184  0.0004  0.0028 </r>
        <r>  0.0485  0.0003  0.0001  0.0004  0.0041  0.0790  0.0013  0.0451  0.0124 </r>
       </set>
      </set>
      <set comment="kpoint 45">
       <set comment="band 1">
        <r>  0.0002  0.0004  0.0003  0.0008  0.1843  0.0555  0.4621  0.0973  0.1225 </r>
        <r>  0.0353  0.0000  0.0000  0.0001  0.0000  0.0000  0.0000  0.0000  0.0000 </r>
       </set>
       <set comment="band 2">
        <r>  0.0000  0.0000  0.0000  0.0000  0.1288  0.1998  0.2283  0.1445  0.2740 </r>
        <r>  0.0000  0.0008  0.0012  0.0003  0.0001  0.0001  0.0000  0.0002  0.0003 </r>
       </set>
       <set comment="band 3">
        <r>  0.0000  0.0001  0.0001  0.0000  0.0891  0.1548  0.0369  0.2852  0.4105 </r>
        <r>  0.0001  0.0014  0.0009  0.0007  0.0000  0.0000  0.0001  0.0001  0.0001 </r>
       </set>
       <set comment="band 4">
        <r>  0.0000  0.0000  0.0000  0.0000  0.5216  0.0251  0.2090  0.0612  0.1613 </r>
        <r>  0.0000  0.0001  0.0000  0.0001  0.0001  0.0000  0.0002  0.0000  0.0000 </r>
       </set>
       <set comment="band 5">
        <r>  0.0000  0.0000  0.0000  0.0000  0.0423  0.5398  0.0140  0.3843  0.0007 </r>
        <r>  0.0000  0.0000  0.0000  0.0000  0.0000  0.0000  0.0000  0.0000  0.0000 </r>
       </set>
       <set comment="band 6">
        <r>  0.0244  0.0086  0.0067  0.0238  0.0124  0.0042  0.0309  0.0089  0.0110 </r>
        <r>  0.5530  0.0003  0.0001  0.0013  0.0000  0.0000  0.0000  0.0000  0.0001 </r>
       </set>
       <set comment="band 7">
        <r>  0.4137  0.0034  0.0046  0.0027  0.0019  0.0001  0.0027  0.0005  0.0000 </r>
        <r>  0.0239  0.0275  0.0259  0.0914  0.0009  0.0002  0.0021  0.0007  0.0006 </r>
       </set>
       <set comment="band 8">
        <r>  0.0097  0.0205  0.0630  0.0731  0.0041  0.0045  0.0010  0.0003  0.0010 </r>
        <r>  0.0015  0.0503  0.1092  0.0946  0.0007  0.0006  0.0004  0.0000  0.0001 </r>
       </set>
       <set comment="band 9">
        <r>  0.0023  0.0914  0.0587  0.0130  0.0038  0.0012  0.0024  0.0024  0.0044 </r>
        <r>  0.0005  0.1699  0.1091  0.0090  0.0011  0.0003  0.0004  0.0003  0.0004 </r>
       </set>
       <set comment="band 10">
        <r>  0.2112  0.0053  0.0067  0.0017  0.0049  0.0088  0.0064  0.0001  0.0077 </r>
        <r>  0.0080  0.1137  0.0671  0.0819  0.0064  0.0034  0.0144  0.0005  0.0019 </r>
       </set>
       <set comment="band 11">
        <r>  0.0078  0.0563  0.0138  0.0792  0.0092  0.0008  0.0262  0.0016  0.0026 </r>
        <r>  0.0526  0.0132  0.0448  0.0418  0.0142  0.0004  0.0060  0.0001  0.0039 </r>
       </set>
       <set comment="band 12">
        <r>  0.0024  0.0821  0.0741  0.0161  0.0161  0.0112  0.0048  0.0018  0.0037 </r>
        <r>  0.0264  0.0165  0.0291  0.0130  0.0082  0.0189  0.0149  0.0001  0.0042 </r>
       </set>
       <set comment="band 13">
        <r>  0.0178  0.0395  0.0923  0.0654  0.0081  0.0001  0.0055  0.0091  0.0128 </r>
        <r>  0.0120  0.0082  0.0338  0.0709  0.0030  0.0016  0.0078  0.0249  0.0147 </r>
       </set>
       <set comment="band 14">
        <r>  0.0002  0.0736  0.0685  0.0063  0.0040  0.0113  0.0000  0.0191  0.0263 </r>
        <r>  0.0057  0.0770  0.0515  0.0943  0.0066  0.0094  0.0018  0.0150  0.0103 </r>
       </set>
       <set comment="band 15">
        <r>  0.0019  0.0144  0.0041  0.0783  0.0147  0.0262  0.0206  0.0315  0.0013 </r>
        <r>  0.0258  0.0088  0.0066  0.0142  0.0045  0.0312  0.0079  0.0127  0.0385 </r>
       </set>
       <set comment="band 16">
        <r>  0.0134  0.0314  0.0361  0.0925  0.0015  0.0056  0.0062  0.0019  0.0089 </r>
        <r>  0.0012  0.0309  0.0451  0.0140  0.0097  0.0117  0.0026  0.0141  0.0169 </r>
       </set>
      </set>
      <set comment="kpoint 46">
       <set comment="band 1">
        <r>  0.0001  0.0005  0.0003  0.0007  0.1486  0.0606  0.3455  0.1102  0.2556 </r>
        <r>  0.0364  0.0000  0.0000  0.0000  0.0000  0.0000  0.0000  0.0000  0.0000 </r>
       </set>
       <set comment="band 2">
        <r>  0.0000  0.0000  0.0000  0.0000  0.0997  0.1179  0.4221  0.1107  0.2252 </r>
        <r>  0.0000  0.0008  0.0010  0.0003  0.0001  0.0001  0.0000  0.0002  0.0003 </r>
       </set>
       <set comment="band 3">
        <r>  0.0000  0.0001  0.0001  0.0000  0.0871  0.2223  0.0382  0.3209  0.3082 </r>
        <r>  0.0000  0.0009  0.0012  0.0008  0.0001  0.0000  0.0001  0.0001  0.0001 </r>
       </set>
       <set comment="band 4">
        <r>  0.0000  0.0000  0.0000  0.0000  0.4547  0.1375  0.1048  0.1331  0.1486 </r>
        <r>  0.0000  0.0000  0.0000  0.0000  0.0001  0.0000  0.0002  0.0001  0.0001 </r>
       </set>
       <set comment="band 5">
        <r>  0.0000  0.0000  0.0000  0.0000  0.1783  0.4366  0.0447  0.2974  0.0237 </r>
        <r>  0.0000  0.0001  0.0001  0.0001  0.0000  0.0000  0.0000  0.0000  0.0000 </r>
       </set>
       <set comment="band 6">
        <r>  0.0093  0.0134  0.0073  0.0218  0.0123  0.0040  0.0258  0.0084  0.0211 </r>
        <r>  0.5694  0.0003  0.0001  0.0001  0.0000  0.0000  0.0000  0.0000  0.0000 </r>
       </set>
       <set comment="band 7">
        <r>  0.4385  0.0003  0.0005  0.0050  0.0004  0.0005  0.0002  0.0005  0.0003 </r>
        <r>  0.0073  0.0414  0.0212  0.0816  0.0009  0.0002  0.0016  0.0006  0.0015 </r>
       </set>
       <set comment="band 8">
        <r>  0.0053  0.0577  0.0225  0.0762  0.0030  0.0023  0.0040  0.0010  0.0008 </r>
        <r>  0.0015  0.1041  0.0362  0.1105  0.0005  0.0003  0.0005  0.0001  0.0000 </r>
       </set>
       <set comment="band 9">
        <r>  0.0013  0.0516  0.1006  0.0129  0.0030  0.0036  0.0015  0.0027  0.0016 </r>
        <r>  0.0002  0.0791  0.1911  0.0088  0.0007  0.0006  0.0006  0.0003  0.0002 </r>
       </set>
       <set comment="band 10">
        <r>  0.1717  0.0029  0.0121  0.0276  0.0004  0.0124  0.0122  0.0006  0.0050 </r>
        <r>  0.0209  0.0854  0.0984  0.0470  0.0026  0.0064  0.0125  0.0005  0.0033 </r>
       </set>
       <set comment="band 11">
        <r>  0.0118  0.0577  0.0341  0.0076  0.0030  0.0073  0.0227  0.0066  0.0075 </r>
        <r>  0.0245  0.0460  0.0446  0.0467  0.0087  0.0083  0.0114  0.0006  0.0023 </r>
       </set>
       <set comment="band 12">
        <r>  0.0536  0.0457  0.0742  0.0546  0.0090  0.0004  0.0057  0.0053  0.0026 </r>
        <r>  0.0399  0.0389  0.0101  0.0869  0.0071  0.0074  0.0029  0.0070  0.0079 </r>
       </set>
       <set comment="band 13">
        <r>  0.0003  0.0645  0.0449  0.0776  0.0232  0.0035  0.0008  0.0110  0.0124 </r>
        <r>  0.0154  0.0083  0.0038  0.0055  0.0152  0.0014  0.0165  0.0175  0.0121 </r>
       </set>
       <set comment="band 14">
        <r>  0.0001  0.0681  0.0969  0.0097  0.0090  0.0194  0.0061  0.0062  0.0220 </r>
        <r>  0.0090  0.0809  0.0625  0.0747  0.0056  0.0212  0.0023  0.0019  0.0075 </r>
       </set>
       <set comment="band 15">
        <r>  0.0023  0.0243  0.0229  0.0031  0.0084  0.0206  0.0064  0.0366  0.0118 </r>
        <r>  0.0069  0.0013  0.0284  0.1042  0.0050  0.0276  0.0105  0.0053  0.0066 </r>
       </set>
       <set comment="band 16">
        <r>  0.0018  0.0143  0.0311  0.1494  0.0078  0.0062  0.0162  0.0179  0.0029 </r>
        <r>  0.0186  0.0069  0.0033  0.0100  0.0004  0.0002  0.0021  0.1030  0.0666 </r>
       </set>
      </set>
      <set comment="kpoint 47">
       <set comment="band 1">
        <r>  0.0000  0.0005  0.0003  0.0007  0.1571  0.0473  0.4771  0.0946  0.1438 </r>
        <r>  0.0367  0.0000  0.0000  0.0000  0.0000  0.0000  0.0000  0.0000  0.0000 </r>
       </set>
       <set comment="band 2">
        <r>  0.0000  0.0000  0.0000  0.0000  0.1047  0.1122  0.2271  0.2244  0.3077 </r>
        <r>  0.0001  0.0007  0.0010  0.0003  0.0001  0.0001  0.0000  0.0002  0.0003 </r>
       </set>
       <set comment="band 3">
        <r>  0.0000  0.0001  0.0001  0.0000  0.1458  0.1501  0.0380  0.2750  0.3680 </r>
        <r>  0.0000  0.0009  0.0008  0.0011  0.0000  0.0000  0.0001  0.0001  0.0001 </r>
       </set>
       <set comment="band 4">
        <r>  0.0000  0.0000  0.0000  0.0000  0.5167  0.0573  0.1901  0.0726  0.1415 </r>
        <r>  0.0000  0.0001  0.0000  0.0001  0.0001  0.0000  0.0002  0.0001  0.0001 </r>
       </set>
       <set comment="band 5">
        <r>  0.0000  0.0000  0.0000  0.0000  0.0429  0.6094  0.0160  0.3056  0.0069 </r>
        <r>  0.0000  0.0001  0.0001  0.0001  0.0000  0.0000  0.0000  0.0000  0.0000 </r>
       </set>
       <set comment="band 6">
        <r>  0.0000  0.0150  0.0075  0.0226  0.0118  0.0043  0.0350  0.0087  0.0129 </r>
        <r>  0.5782  0.0000  0.0000  0.0000  0.0000  0.0000  0.0000  0.0000  0.0000 </r>
       </set>
       <set comment="band 7">
        <r>  0.4546  0.0000  0.0000  0.0000  0.0010  0.0003  0.0004  0.0001  0.0001 </r>
        <r>  0.0000  0.0479  0.0227  0.0731  0.0008  0.0003  0.0024  0.0006  0.0009 </r>
       </set>
       <set comment="band 8">
        <r>  0.0014  0.0477  0.0716  0.0239  0.0070  0.0029  0.0025  0.0029  0.0035 </r>
        <r>  0.0000  0.0916  0.0907  0.0924  0.0000  0.0000  0.0000  0.0000  0.0000 </r>
       </set>
       <set comment="band 9">
        <r>  0.0000  0.0613  0.0566  0.0660  0.0001  0.0003  0.0001  0.0006  0.0008 </r>
        <r>  0.0003  0.0838  0.1258  0.0419  0.0014  0.0005  0.0005  0.0004  0.0005 </r>
       </set>
       <set comment="band 10">
        <r>  0.0000  0.0398  0.0078  0.0718  0.0100  0.0013  0.0324  0.0026  0.0047 </r>
        <r>  0.0387  0.0365  0.0548  0.0183  0.0174  0.0000  0.0065  0.0000  0.0022 </r>
       </set>
       <set comment="band 11">
        <r>  0.2125  0.0046  0.0069  0.0023  0.0131  0.0021  0.0049  0.0012  0.0019 </r>
        <r>  0.0000  0.0847  0.0616  0.1078  0.0067  0.0003  0.0222  0.0007  0.0018 </r>
       </set>
       <set comment="band 12">
        <r>  0.0000  0.0705  0.0746  0.0664  0.0022  0.0059  0.0008  0.0119  0.0158 </r>
        <r>  0.0601  0.0298  0.0448  0.0149  0.0003  0.0170  0.0001  0.0086  0.0002 </r>
       </set>
       <set comment="band 13">
        <r>  0.0249  0.0504  0.0756  0.0252  0.0148  0.0106  0.0054  0.0065  0.0040 </r>
        <r>  0.0000  0.0242  0.0048  0.0437  0.0068  0.0081  0.0138  0.0162  0.0220 </r>
       </set>
       <set comment="band 14">
        <r>  0.0008  0.0599  0.0899  0.0300  0.0038  0.0102  0.0002  0.0200  0.0265 </r>
        <r>  0.0000  0.1056  0.0877  0.1234  0.0001  0.0000  0.0004  0.0000  0.0000 </r>
       </set>
       <set comment="band 15">
        <r>  0.0000  0.0808  0.0747  0.0868  0.0075  0.0059  0.0187  0.0117  0.0163 </r>
        <r>  0.0004  0.0058  0.0088  0.0029  0.0108  0.0325  0.0001  0.0639  0.0848 </r>
       </set>
       <set comment="band 16">
        <r>  0.0037  0.0011  0.0017  0.0006  0.0101  0.0497  0.0037  0.0256  0.0026 </r>
        <r>  0.0000  0.0498  0.0308  0.0688  0.0038  0.0049  0.0072  0.0099  0.0134 </r>
       </set>
      </set>
     </set>
    </set>
   </array>
  </projected>
 </calculation>
 <structure name="finalpos" >
  <crystal>
   <varray name="basis" >
    <v>       3.73111929      -0.00000000       2.15416231 </v>
    <v>       1.24370677       3.51773231       2.15416231 </v>
    <v>      -0.00000000      -0.00000000       4.30832462 </v>
   </varray>
   <i name="volume">     56.54710041 </i>
   <varray name="rec_basis" >
    <v>       0.26801609      -0.09475804       0.00000000 </v>
    <v>       0.00000000       0.28427405       0.00000000 </v>
    <v>      -0.13400804      -0.09475800       0.23210879 </v>
   </varray>
  </crystal>
  <varray name="positions" >
   <v>       0.25000000       0.25000000       0.25000000 </v>
   <v>       0.00000000       0.00000000       0.00000000 </v>
  </varray>
 </structure>
</modeling>
