    2    2    1    2
  0.2827355E+02  0.4308325E-09  0.4308325E-09  0.4308325E-09  0.5000000E-15
   1.0000000000000000E-004
  CAR 
 unknown system                          
     18     42     16
 
  0.0000000E+00  0.0000000E+00  0.0000000E+00  0.2380952E-01
      1        -10.094130      -10.094104   1.000000   1.000000
      2        -10.094129      -10.094102   1.000000   1.000000
      3        -10.094127      -10.094101   1.000000   1.000000
      4         -9.977987       -9.977957   1.000000   1.000000
      5         -9.977985       -9.977955   1.000000   1.000000
      6         -7.401015       -7.401024   1.000000   1.000000
      7          4.023975        4.023962   1.000000   1.000000
      8          4.292626        4.292619   0.666888   0.666954
      9          4.292627        4.292620   0.666880   0.666946
     10          4.292627        4.292620   0.666877   0.666944
     11          8.191378        8.191356   0.000000   0.000000
     12          8.191379        8.191357   0.000000   0.000000
     13          8.191380        8.191358   0.000000   0.000000
     14         11.743765       11.743827   0.000000   0.000000
     15         13.904064       13.904063   0.000000   0.000000
     16         13.904069       13.904072   0.000000   0.000000
 
  0.0000000E+00  0.0000000E+00  0.0000000E+00  0.2380952E-01
      1        -10.094130      -10.094104   1.000000   1.000000
      2        -10.094129      -10.094102   1.000000   1.000000
      3        -10.094127      -10.094101   1.000000   1.000000
      4         -9.977987       -9.977957   1.000000   1.000000
      5         -9.977985       -9.977955   1.000000   1.000000
      6         -7.401015       -7.401024   1.000000   1.000000
      7          4.023975        4.023962   1.000000   1.000000
      8          4.292626        4.292619   0.666888   0.666954
      9          4.292627        4.292620   0.666880   0.666946
     10          4.292627        4.292620   0.666877   0.666944
     11          8.191378        8.191356   0.000000   0.000000
     12          8.191379        8.191357   0.000000   0.000000
     13          8.191380        8.191358   0.000000   0.000000
     14         11.743765       11.743827   0.000000   0.000000
     15         13.904063       13.904064   0.000000   0.000000
     16         13.904066       13.904069   0.000000   0.000000
 
 -0.1000000E+00  0.0000000E+00  0.0000000E+00  0.2380952E-01
      1        -10.105591      -10.105565   1.000000   1.000000
      2        -10.090616      -10.090590   1.000000   1.000000
      3        -10.090615      -10.090588   1.000000   1.000000
      4         -9.978096       -9.978066   1.000000   1.000000
      5         -9.978094       -9.978064   1.000000   1.000000
      6         -7.301450       -7.301460   1.000000   1.000000
      7          2.774532        2.774522   1.000000   1.000000
      8          4.169314        4.169307   0.999956   0.999956
      9          4.169315        4.169308   0.999956   0.999956
     10          5.193362        5.193351   0.000000   0.000000
     11          8.248765        8.248753   0.000000   0.000000
     12          8.374746        8.374723   0.000000   0.000000
     13          8.374747        8.374724   0.000000   0.000000
     14         12.323734       12.323786   0.000000   0.000000
     15         13.221812       13.221824   0.000000   0.000000
     16         13.221813       13.221826   0.000000   0.000000
 
  0.1000000E+00  0.0000000E+00  0.0000000E+00  0.2380952E-01
      1        -10.105591      -10.105565   1.000000   1.000000
      2        -10.090616      -10.090590   1.000000   1.000000
      3        -10.090615      -10.090588   1.000000   1.000000
      4         -9.978096       -9.978066   1.000000   1.000000
      5         -9.978094       -9.978064   1.000000   1.000000
      6         -7.301450       -7.301460   1.000000   1.000000
      7          2.774532        2.774522   1.000000   1.000000
      8          4.169314        4.169307   0.999956   0.999956
      9          4.169315        4.169308   0.999956   0.999956
     10          5.193362        5.193351   0.000000   0.000000
     11          8.248765        8.248753   0.000000   0.000000
     12          8.374746        8.374723   0.000000   0.000000
     13          8.374747        8.374724   0.000000   0.000000
     14         12.323734       12.323786   0.000000   0.000000
     15         13.221812       13.221824   0.000000   0.000000
     16         13.221813       13.221826   0.000000   0.000000
 
  0.1000000E+00  0.0000000E+00  0.0000000E+00  0.2380952E-01
      1        -10.105591      -10.105565   1.000000   1.000000
      2        -10.090616      -10.090590   1.000000   1.000000
      3        -10.090615      -10.090588   1.000000   1.000000
      4         -9.978096       -9.978066   1.000000   1.000000
      5         -9.978094       -9.978064   1.000000   1.000000
      6         -7.301450       -7.301460   1.000000   1.000000
      7          2.774532        2.774522   1.000000   1.000000
      8          4.169314        4.169307   0.999956   0.999956
      9          4.169315        4.169308   0.999956   0.999956
     10          5.193362        5.193351   0.000000   0.000000
     11          8.248765        8.248753   0.000000   0.000000
     12          8.374746        8.374723   0.000000   0.000000
     13          8.374747        8.374724   0.000000   0.000000
     14         12.323734       12.323786   0.000000   0.000000
     15         13.221812       13.221824   0.000000   0.000000
     16         13.221813       13.221826   0.000000   0.000000
 
 -0.1000000E+00 -0.0000000E+00  0.0000000E+00  0.2380952E-01
      1        -10.105591      -10.105565   1.000000   1.000000
      2        -10.090616      -10.090590   1.000000   1.000000
      3        -10.090615      -10.090588   1.000000   1.000000
      4         -9.978096       -9.978066   1.000000   1.000000
      5         -9.978094       -9.978064   1.000000   1.000000
      6         -7.301450       -7.301460   1.000000   1.000000
      7          2.774532        2.774522   1.000000   1.000000
      8          4.169314        4.169307   0.999956   0.999956
      9          4.169315        4.169308   0.999956   0.999956
     10          5.193362        5.193351   0.000000   0.000000
     11          8.248765        8.248753   0.000000   0.000000
     12          8.374746        8.374723   0.000000   0.000000
     13          8.374747        8.374724   0.000000   0.000000
     14         12.323734       12.323786   0.000000   0.000000
     15         13.221812       13.221824   0.000000   0.000000
     16         13.221813       13.221826   0.000000   0.000000
 
  0.0000000E+00 -0.1000000E+00  0.0000000E+00  0.2380952E-01
      1        -10.105593      -10.105567   1.000000   1.000000
      2        -10.090615      -10.090588   1.000000   1.000000
      3        -10.090614      -10.090588   1.000000   1.000000
      4         -9.978096       -9.978067   1.000000   1.000000
      5         -9.978094       -9.978065   1.000000   1.000000
      6         -7.301450       -7.301460   1.000000   1.000000
      7          2.774532        2.774522   1.000000   1.000000
      8          4.169314        4.169307   0.999956   0.999956
      9          4.169315        4.169308   0.999956   0.999956
     10          5.193361        5.193351   0.000000   0.000000
     11          8.248766        8.248754   0.000000   0.000000
     12          8.374745        8.374723   0.000000   0.000000
     13          8.374746        8.374723   0.000000   0.000000
     14         12.323735       12.323787   0.000000   0.000000
     15         13.221811       13.221823   0.000000   0.000000
     16         13.221813       13.221825   0.000000   0.000000
 
  0.0000000E+00  0.1000000E+00  0.0000000E+00  0.2380952E-01
      1        -10.105593      -10.105567   1.000000   1.000000
      2        -10.090615      -10.090588   1.000000   1.000000
      3        -10.090614      -10.090588   1.000000   1.000000
      4         -9.978096       -9.978067   1.000000   1.000000
      5         -9.978094       -9.978065   1.000000   1.000000
      6         -7.301450       -7.301460   1.000000   1.000000
      7          2.774532        2.774522   1.000000   1.000000
      8          4.169314        4.169307   0.999956   0.999956
      9          4.169315        4.169308   0.999956   0.999956
     10          5.193361        5.193351   0.000000   0.000000
     11          8.248766        8.248754   0.000000   0.000000
     12          8.374745        8.374723   0.000000   0.000000
     13          8.374746        8.374723   0.000000   0.000000
     14         12.323735       12.323787   0.000000   0.000000
     15         13.221811       13.221823   0.000000   0.000000
     16         13.221813       13.221825   0.000000   0.000000
 
  0.0000000E+00  0.1000000E+00  0.0000000E+00  0.2380952E-01
      1        -10.105593      -10.105567   1.000000   1.000000
      2        -10.090615      -10.090588   1.000000   1.000000
      3        -10.090614      -10.090588   1.000000   1.000000
      4         -9.978096       -9.978067   1.000000   1.000000
      5         -9.978094       -9.978065   1.000000   1.000000
      6         -7.301450       -7.301460   1.000000   1.000000
      7          2.774532        2.774522   1.000000   1.000000
      8          4.169314        4.169307   0.999956   0.999956
      9          4.169315        4.169308   0.999956   0.999956
     10          5.193361        5.193351   0.000000   0.000000
     11          8.248766        8.248754   0.000000   0.000000
     12          8.374745        8.374723   0.000000   0.000000
     13          8.374746        8.374723   0.000000   0.000000
     14         12.323735       12.323787   0.000000   0.000000
     15         13.221811       13.221823   0.000000   0.000000
     16         13.221813       13.221825   0.000000   0.000000
 
  0.0000000E+00 -0.1000000E+00  0.0000000E+00  0.2380952E-01
      1        -10.105593      -10.105567   1.000000   1.000000
      2        -10.090615      -10.090588   1.000000   1.000000
      3        -10.090614      -10.090588   1.000000   1.000000
      4         -9.978096       -9.978067   1.000000   1.000000
      5         -9.978094       -9.978065   1.000000   1.000000
      6         -7.301450       -7.301460   1.000000   1.000000
      7          2.774532        2.774522   1.000000   1.000000
      8          4.169314        4.169307   0.999956   0.999956
      9          4.169315        4.169308   0.999956   0.999956
     10          5.193361        5.193351   0.000000   0.000000
     11          8.248766        8.248754   0.000000   0.000000
     12          8.374745        8.374723   0.000000   0.000000
     13          8.374746        8.374723   0.000000   0.000000
     14         12.323735       12.323787   0.000000   0.000000
     15         13.221811       13.221823   0.000000   0.000000
     16         13.221813       13.221825   0.000000   0.000000
 
  0.0000000E+00  0.0000000E+00 -0.1000000E+00  0.2380952E-01
      1        -10.105592      -10.105566   1.000000   1.000000
      2        -10.090616      -10.090590   1.000000   1.000000
      3        -10.090614      -10.090587   1.000000   1.000000
      4         -9.978096       -9.978066   1.000000   1.000000
      5         -9.978094       -9.978065   1.000000   1.000000
      6         -7.301450       -7.301460   1.000000   1.000000
      7          2.774532        2.774522   1.000000   1.000000
      8          4.169314        4.169307   0.999956   0.999956
      9          4.169315        4.169308   0.999956   0.999956
     10          5.193362        5.193351   0.000000   0.000000
     11          8.248766        8.248754   0.000000   0.000000
     12          8.374745        8.374722   0.000000   0.000000
     13          8.374747        8.374724   0.000000   0.000000
     14         12.323734       12.323787   0.000000   0.000000
     15         13.221811       13.221824   0.000000   0.000000
     16         13.221813       13.221825   0.000000   0.000000
 
 -0.0000000E+00 -0.0000000E+00  0.1000000E+00  0.2380952E-01
      1        -10.105592      -10.105566   1.000000   1.000000
      2        -10.090616      -10.090590   1.000000   1.000000
      3        -10.090614      -10.090587   1.000000   1.000000
      4         -9.978096       -9.978066   1.000000   1.000000
      5         -9.978094       -9.978065   1.000000   1.000000
      6         -7.301450       -7.301460   1.000000   1.000000
      7          2.774532        2.774522   1.000000   1.000000
      8          4.169314        4.169307   0.999956   0.999956
      9          4.169315        4.169308   0.999956   0.999956
     10          5.193362        5.193351   0.000000   0.000000
     11          8.248766        8.248754   0.000000   0.000000
     12          8.374745        8.374722   0.000000   0.000000
     13          8.374747        8.374724   0.000000   0.000000
     14         12.323734       12.323787   0.000000   0.000000
     15         13.221811       13.221824   0.000000   0.000000
     16         13.221813       13.221826   0.000000   0.000000
 
 -0.1000000E+00 -0.1000000E+00 -0.1000000E+00  0.2380952E-01
      1        -10.105593      -10.105567   1.000000   1.000000
      2        -10.090615      -10.090589   1.000000   1.000000
      3        -10.090614      -10.090587   1.000000   1.000000
      4         -9.978096       -9.978067   1.000000   1.000000
      5         -9.978094       -9.978065   1.000000   1.000000
      6         -7.301450       -7.301460   1.000000   1.000000
      7          2.774532        2.774522   1.000000   1.000000
      8          4.169314        4.169307   0.999956   0.999956
      9          4.169315        4.169308   0.999956   0.999956
     10          5.193362        5.193351   0.000000   0.000000
     11          8.248766        8.248754   0.000000   0.000000
     12          8.374745        8.374722   0.000000   0.000000
     13          8.374746        8.374723   0.000000   0.000000
     14         12.323734       12.323787   0.000000   0.000000
     15         13.221811       13.221824   0.000000   0.000000
     16         13.221813       13.221826   0.000000   0.000000
 
  0.1000000E+00  0.1000000E+00  0.1000000E+00  0.2380952E-01
      1        -10.105593      -10.105567   1.000000   1.000000
      2        -10.090615      -10.090589   1.000000   1.000000
      3        -10.090614      -10.090587   1.000000   1.000000
      4         -9.978096       -9.978067   1.000000   1.000000
      5         -9.978094       -9.978065   1.000000   1.000000
      6         -7.301450       -7.301460   1.000000   1.000000
      7          2.774532        2.774522   1.000000   1.000000
      8          4.169314        4.169307   0.999956   0.999956
      9          4.169315        4.169308   0.999956   0.999956
     10          5.193362        5.193351   0.000000   0.000000
     11          8.248766        8.248754   0.000000   0.000000
     12          8.374745        8.374722   0.000000   0.000000
     13          8.374746        8.374723   0.000000   0.000000
     14         12.323734       12.323787   0.000000   0.000000
     15         13.221811       13.221824   0.000000   0.000000
     16         13.221813       13.221826   0.000000   0.000000
 
  0.0000000E+00  0.0000000E+00  0.1000000E+00  0.2380952E-01
      1        -10.105592      -10.105566   1.000000   1.000000
      2        -10.090616      -10.090590   1.000000   1.000000
      3        -10.090614      -10.090587   1.000000   1.000000
      4         -9.978096       -9.978066   1.000000   1.000000
      5         -9.978094       -9.978065   1.000000   1.000000
      6         -7.301450       -7.301460   1.000000   1.000000
      7          2.774532        2.774522   1.000000   1.000000
      8          4.169314        4.169307   0.999956   0.999956
      9          4.169315        4.169308   0.999956   0.999956
     10          5.193362        5.193351   0.000000   0.000000
     11          8.248766        8.248754   0.000000   0.000000
     12          8.374745        8.374722   0.000000   0.000000
     13          8.374747        8.374724   0.000000   0.000000
     14         12.323734       12.323787   0.000000   0.000000
     15         13.221811       13.221824   0.000000   0.000000
     16         13.221813       13.221826   0.000000   0.000000
 
  0.0000000E+00  0.0000000E+00 -0.1000000E+00  0.2380952E-01
      1        -10.105592      -10.105566   1.000000   1.000000
      2        -10.090616      -10.090590   1.000000   1.000000
      3        -10.090614      -10.090587   1.000000   1.000000
      4         -9.978096       -9.978066   1.000000   1.000000
      5         -9.978094       -9.978065   1.000000   1.000000
      6         -7.301450       -7.301460   1.000000   1.000000
      7          2.774532        2.774522   1.000000   1.000000
      8          4.169314        4.169307   0.999956   0.999956
      9          4.169315        4.169308   0.999956   0.999956
     10          5.193362        5.193351   0.000000   0.000000
     11          8.248766        8.248754   0.000000   0.000000
     12          8.374745        8.374722   0.000000   0.000000
     13          8.374747        8.374724   0.000000   0.000000
     14         12.323734       12.323787   0.000000   0.000000
     15         13.221811       13.221824   0.000000   0.000000
     16         13.221813       13.221826   0.000000   0.000000
 
  0.1000000E+00  0.1000000E+00  0.1000000E+00  0.2380952E-01
      1        -10.105593      -10.105567   1.000000   1.000000
      2        -10.090615      -10.090589   1.000000   1.000000
      3        -10.090614      -10.090587   1.000000   1.000000
      4         -9.978096       -9.978067   1.000000   1.000000
      5         -9.978094       -9.978065   1.000000   1.000000
      6         -7.301450       -7.301460   1.000000   1.000000
      7          2.774532        2.774522   1.000000   1.000000
      8          4.169314        4.169307   0.999956   0.999956
      9          4.169315        4.169308   0.999956   0.999956
     10          5.193362        5.193351   0.000000   0.000000
     11          8.248766        8.248754   0.000000   0.000000
     12          8.374745        8.374722   0.000000   0.000000
     13          8.374746        8.374723   0.000000   0.000000
     14         12.323734       12.323787   0.000000   0.000000
     15         13.221811       13.221824   0.000000   0.000000
     16         13.221813       13.221826   0.000000   0.000000
 
 -0.1000000E+00 -0.1000000E+00 -0.1000000E+00  0.2380952E-01
      1        -10.105593      -10.105567   1.000000   1.000000
      2        -10.090615      -10.090589   1.000000   1.000000
      3        -10.090614      -10.090587   1.000000   1.000000
      4         -9.978096       -9.978067   1.000000   1.000000
      5         -9.978094       -9.978065   1.000000   1.000000
      6         -7.301450       -7.301460   1.000000   1.000000
      7          2.774532        2.774522   1.000000   1.000000
      8          4.169314        4.169307   0.999956   0.999956
      9          4.169315        4.169308   0.999956   0.999956
     10          5.193362        5.193351   0.000000   0.000000
     11          8.248766        8.248754   0.000000   0.000000
     12          8.374745        8.374722   0.000000   0.000000
     13          8.374746        8.374723   0.000000   0.000000
     14         12.323734       12.323787   0.000000   0.000000
     15         13.221811       13.221824   0.000000   0.000000
     16         13.221813       13.221826   0.000000   0.000000
 
  0.1000000E+00 -0.1000000E+00  0.0000000E+00  0.2380952E-01
      1        -10.123979      -10.123953   1.000000   1.000000
      2        -10.086704      -10.086678   1.000000   1.000000
      3        -10.082322      -10.082296   1.000000   1.000000
      4         -9.980208       -9.980178   1.000000   1.000000
      5         -9.976203       -9.976174   1.000000   1.000000
      6         -7.140754       -7.140763   1.000000   1.000000
      7          1.957641        1.957631   1.000000   1.000000
      8          3.571290        3.571282   1.000000   1.000000
      9          4.147399        4.147392   0.999997   0.999997
     10          5.780958        5.780946   0.000000   0.000000
     11          8.148733        8.148729   0.000000   0.000000
     12          8.444302        8.444278   0.000000   0.000000
     13          9.054699        9.054681   0.000000   0.000000
     14         12.431745       12.431764   0.000000   0.000000
     15         12.899010       12.899037   0.000000   0.000000
     16         13.167906       13.167940   0.000000   0.000000
 
 -0.1000000E+00  0.1000000E+00  0.0000000E+00  0.2380952E-01
      1        -10.123979      -10.123953   1.000000   1.000000
      2        -10.086704      -10.086678   1.000000   1.000000
      3        -10.082322      -10.082296   1.000000   1.000000
      4         -9.980208       -9.980178   1.000000   1.000000
      5         -9.976203       -9.976174   1.000000   1.000000
      6         -7.140754       -7.140763   1.000000   1.000000
      7          1.957641        1.957631   1.000000   1.000000
      8          3.571290        3.571282   1.000000   1.000000
      9          4.147399        4.147392   0.999997   0.999997
     10          5.780958        5.780946   0.000000   0.000000
     11          8.148733        8.148729   0.000000   0.000000
     12          8.444302        8.444278   0.000000   0.000000
     13          9.054699        9.054681   0.000000   0.000000
     14         12.431745       12.431764   0.000000   0.000000
     15         12.899010       12.899037   0.000000   0.000000
     16         13.167906       13.167940   0.000000   0.000000
 
 -0.1000000E+00  0.1000000E+00  0.0000000E+00  0.2380952E-01
      1        -10.123979      -10.123953   1.000000   1.000000
      2        -10.086704      -10.086678   1.000000   1.000000
      3        -10.082322      -10.082296   1.000000   1.000000
      4         -9.980208       -9.980178   1.000000   1.000000
      5         -9.976203       -9.976174   1.000000   1.000000
      6         -7.140754       -7.140763   1.000000   1.000000
      7          1.957641        1.957631   1.000000   1.000000
      8          3.571290        3.571282   1.000000   1.000000
      9          4.147399        4.147392   0.999997   0.999997
     10          5.780958        5.780946   0.000000   0.000000
     11          8.148733        8.148729   0.000000   0.000000
     12          8.444302        8.444278   0.000000   0.000000
     13          9.054699        9.054681   0.000000   0.000000
     14         12.431745       12.431764   0.000000   0.000000
     15         12.899010       12.899037   0.000000   0.000000
     16         13.167906       13.167940   0.000000   0.000000
 
  0.1000000E+00 -0.1000000E+00  0.0000000E+00  0.2380952E-01
      1        -10.123979      -10.123953   1.000000   1.000000
      2        -10.086704      -10.086678   1.000000   1.000000
      3        -10.082322      -10.082296   1.000000   1.000000
      4         -9.980208       -9.980178   1.000000   1.000000
      5         -9.976203       -9.976174   1.000000   1.000000
      6         -7.140754       -7.140763   1.000000   1.000000
      7          1.957641        1.957631   1.000000   1.000000
      8          3.571290        3.571282   1.000000   1.000000
      9          4.147399        4.147392   0.999997   0.999997
     10          5.780958        5.780946   0.000000   0.000000
     11          8.148733        8.148729   0.000000   0.000000
     12          8.444302        8.444278   0.000000   0.000000
     13          9.054699        9.054681   0.000000   0.000000
     14         12.431745       12.431764   0.000000   0.000000
     15         12.899010       12.899037   0.000000   0.000000
     16         13.167906       13.167940   0.000000   0.000000
 
  0.1000000E+00  0.0000000E+00 -0.1000000E+00  0.2380952E-01
      1        -10.123979      -10.123953   1.000000   1.000000
      2        -10.086706      -10.086679   1.000000   1.000000
      3        -10.082321      -10.082295   1.000000   1.000000
      4         -9.980206       -9.980177   1.000000   1.000000
      5         -9.976205       -9.976175   1.000000   1.000000
      6         -7.140754       -7.140763   1.000000   1.000000
      7          1.957642        1.957632   1.000000   1.000000
      8          3.571290        3.571283   1.000000   1.000000
      9          4.147399        4.147391   0.999997   0.999997
     10          5.780958        5.780947   0.000000   0.000000
     11          8.148734        8.148730   0.000000   0.000000
     12          8.444303        8.444279   0.000000   0.000000
     13          9.054698        9.054679   0.000000   0.000000
     14         12.431745       12.431764   0.000000   0.000000
     15         12.899010       12.899036   0.000000   0.000000
     16         13.167905       13.167939   0.000000   0.000000
 
 -0.1000000E+00 -0.0000000E+00  0.1000000E+00  0.2380952E-01
      1        -10.123979      -10.123953   1.000000   1.000000
      2        -10.086706      -10.086679   1.000000   1.000000
      3        -10.082321      -10.082295   1.000000   1.000000
      4         -9.980206       -9.980177   1.000000   1.000000
      5         -9.976205       -9.976175   1.000000   1.000000
      6         -7.140754       -7.140763   1.000000   1.000000
      7          1.957642        1.957632   1.000000   1.000000
      8          3.571290        3.571283   1.000000   1.000000
      9          4.147399        4.147391   0.999997   0.999997
     10          5.780958        5.780947   0.000000   0.000000
     11          8.148734        8.148730   0.000000   0.000000
     12          8.444303        8.444279   0.000000   0.000000
     13          9.054698        9.054679   0.000000   0.000000
     14         12.431745       12.431764   0.000000   0.000000
     15         12.899010       12.899036   0.000000   0.000000
     16         13.167905       13.167939   0.000000   0.000000
 
 -0.2000000E+00 -0.1000000E+00 -0.1000000E+00  0.2380952E-01
      1        -10.123980      -10.123954   1.000000   1.000000
      2        -10.086705      -10.086678   1.000000   1.000000
      3        -10.082321      -10.082295   1.000000   1.000000
      4         -9.980206       -9.980177   1.000000   1.000000
      5         -9.976205       -9.976175   1.000000   1.000000
      6         -7.140754       -7.140763   1.000000   1.000000
      7          1.957641        1.957632   1.000000   1.000000
      8          3.571290        3.571283   1.000000   1.000000
      9          4.147398        4.147391   0.999997   0.999997
     10          5.780959        5.780947   0.000000   0.000000
     11          8.148735        8.148730   0.000000   0.000000
     12          8.444302        8.444278   0.000000   0.000000
     13          9.054698        9.054679   0.000000   0.000000
     14         12.431745       12.431764   0.000000   0.000000
     15         12.899011       12.899037   0.000000   0.000000
     16         13.167904       13.167938   0.000000   0.000000
 
  0.2000000E+00  0.1000000E+00  0.1000000E+00  0.2380952E-01
      1        -10.123980      -10.123954   1.000000   1.000000
      2        -10.086705      -10.086678   1.000000   1.000000
      3        -10.082321      -10.082295   1.000000   1.000000
      4         -9.980206       -9.980177   1.000000   1.000000
      5         -9.976205       -9.976175   1.000000   1.000000
      6         -7.140754       -7.140763   1.000000   1.000000
      7          1.957641        1.957632   1.000000   1.000000
      8          3.571290        3.571283   1.000000   1.000000
      9          4.147398        4.147391   0.999997   0.999997
     10          5.780959        5.780947   0.000000   0.000000
     11          8.148735        8.148730   0.000000   0.000000
     12          8.444302        8.444278   0.000000   0.000000
     13          9.054698        9.054679   0.000000   0.000000
     14         12.431745       12.431764   0.000000   0.000000
     15         12.899011       12.899037   0.000000   0.000000
     16         13.167904       13.167938   0.000000   0.000000
 
 -0.1000000E+00 -0.2000000E+00 -0.1000000E+00  0.2380952E-01
      1        -10.123981      -10.123955   1.000000   1.000000
      2        -10.086704      -10.086677   1.000000   1.000000
      3        -10.082321      -10.082294   1.000000   1.000000
      4         -9.980206       -9.980177   1.000000   1.000000
      5         -9.976205       -9.976175   1.000000   1.000000
      6         -7.140754       -7.140763   1.000000   1.000000
      7          1.957641        1.957631   1.000000   1.000000
      8          3.571291        3.571283   1.000000   1.000000
      9          4.147399        4.147391   0.999997   0.999997
     10          5.780958        5.780946   0.000000   0.000000
     11          8.148735        8.148730   0.000000   0.000000
     12          8.444301        8.444277   0.000000   0.000000
     13          9.054698        9.054680   0.000000   0.000000
     14         12.431744       12.431763   0.000000   0.000000
     15         12.899011       12.899037   0.000000   0.000000
     16         13.167905       13.167939   0.000000   0.000000
 
  0.1000000E+00  0.2000000E+00  0.1000000E+00  0.2380952E-01
      1        -10.123981      -10.123955   1.000000   1.000000
      2        -10.086704      -10.086677   1.000000   1.000000
      3        -10.082321      -10.082294   1.000000   1.000000
      4         -9.980206       -9.980177   1.000000   1.000000
      5         -9.976205       -9.976175   1.000000   1.000000
      6         -7.140754       -7.140763   1.000000   1.000000