       N       E                     dE             d eps       ncg     rms          rms(c)
DAV:   1     0.123518351588E+03    0.12352E+03   -0.86011E+03  2696   0.121E+03
DAV:   2     0.101258716332E+02   -0.11339E+03   -0.10829E+03  2752   0.277E+02
DAV:   3     0.203577988795E+01   -0.80901E+01   -0.79513E+01  3672   0.737E+01
DAV:   4     0.185292106536E+01   -0.18286E+00   -0.18209E+00  2904   0.131E+01
DAV:   5     0.184506071764E+01   -0.78603E-02   -0.78602E-02  3936   0.246E+00
DAV:   6     0.184470834856E+01   -0.35237E-03   -0.35237E-03  3376   0.398E-01
DAV:   7     0.184470455809E+01   -0.37905E-05   -0.37906E-05  4120   0.454E-02
DAV:   8     0.184470449736E+01   -0.60729E-07   -0.60869E-07  2248   0.561E-03
   1 F= 0.18447045E+01 E0= 0.18465456E+01  d E =-.368230E-02  mag=    -0.0000
