<?xml version="1.0" encoding="ISO-8859-1"?>
<modeling>
 <generator>
  <i name="program" type="string">vasp </i>
  <i name="version" type="string">6.4.2  </i>
  <i name="subversion" type="string">20Jul23 (build Jun  5 2025 09:16:51) complex                          parallel </i>
  <i name="platform" type="string">LinuxNV_CrayMPICH </i>
  <i name="date" type="string">2026 03 30 </i>
  <i name="time" type="string">17:09:14 </i>
 </generator>
 <incar>
  <i type="string" name="PREC">Accurate</i>
  <i type="string" name="ALGO">Normal</i>
  <i type="int" name="ISPIN">     2</i>
  <i type="int" name="ICHARG">    11</i>
  <i type="int" name="NELM">   100</i>
  <i type="int" name="IBRION">    -1</i>
  <i name="EDIFF">      0.00000100</i>
  <i name="EDIFFG">     -0.01000000</i>
  <i type="int" name="NSW">     0</i>
  <i type="int" name="ISIF">     3</i>
  <i type="int" name="ISYM">    -1</i>
  <i name="ENCUT">    520.00000000</i>
  <v name="MAGMOM">      0.60000000      0.60000000</v>
  <i type="logical" name="LREAL"> F  </i>
  <i type="int" name="ISMEAR">     0</i>
  <i name="SIGMA">      0.05000000</i>
  <i type="int" name="LMAXMIX">     4</i>
  <i type="logical" name="LWAVE"> T  </i>
  <i type="logical" name="LCHARG"> F  </i>
  <i type="logical" name="LVHAR"> T  </i>
  <i type="int" name="LORBIT">    11</i>
  <i type="logical" name="LASPH"> T  </i>
  <i type="logical" name="LAECHG"> T  </i>
 </incar>
 <primitive_cell>
  <structure name="primitive_cell" >
   <crystal>
    <varray name="basis" >
     <v>       3.73111929      -0.00000000       2.15416231 </v>
     <v>       1.24370677       3.51773231       2.15416231 </v>
     <v>      -0.00000000      -0.00000000       4.30832462 </v>
    </varray>
    <i name="volume">     56.54710041 </i>
    <varray name="rec_basis" >
     <v>       0.26801609      -0.09475804       0.00000000 </v>
     <v>       0.00000000       0.28427405       0.00000000 </v>
     <v>      -0.13400804      -0.09475800       0.23210879 </v>
    </varray>
   </crystal>
   <varray name="positions" >
    <v>       0.25000000       0.25000000       0.25000000 </v>
    <v>       0.00000000       0.00000000       0.00000000 </v>
   </varray>
  </structure>
  <varray name="primitive_index" >
   <v type="int" >        1 </v>
   <v type="int" >        2 </v>
  </varray>
 </primitive_cell>
 <kpoints>
  <varray name="kpointlist" >
   <v>       0.00000000       0.00000000       0.00000000 </v>
   <v>       0.00000000       0.00000000       0.00000000 </v>
   <v>      -0.10000000       0.00000000       0.00000000 </v>
   <v>       0.10000000       0.00000000       0.00000000 </v>
   <v>       0.10000000       0.00000000       0.00000000 </v>
   <v>      -0.10000000      -0.00000000       0.00000000 </v>
   <v>       0.00000000      -0.10000000       0.00000000 </v>
   <v>       0.00000000       0.10000000       0.00000000 </v>
   <v>       0.00000000       0.10000000       0.00000000 </v>
   <v>       0.00000000      -0.10000000       0.00000000 </v>
   <v>       0.00000000       0.00000000      -0.10000000 </v>
   <v>      -0.00000000      -0.00000000       0.10000000 </v>
   <v>      -0.10000000      -0.10000000      -0.10000000 </v>
   <v>       0.10000000       0.10000000       0.10000000 </v>
   <v>       0.00000000       0.00000000       0.10000000 </v>
   <v>       0.00000000       0.00000000      -0.10000000 </v>
   <v>       0.10000000       0.10000000       0.10000000 </v>
   <v>      -0.10000000      -0.10000000      -0.10000000 </v>
   <v>       0.10000000      -0.10000000       0.00000000 </v>
   <v>      -0.10000000       0.10000000       0.00000000 </v>
   <v>      -0.10000000       0.10000000       0.00000000 </v>
   <v>       0.10000000      -0.10000000       0.00000000 </v>
   <v>       0.10000000       0.00000000      -0.10000000 </v>
   <v>      -0.10000000      -0.00000000       0.10000000 </v>
   <v>      -0.20000000      -0.10000000      -0.10000000 </v>
   <v>       0.20000000       0.10000000       0.10000000 </v>
   <v>      -0.10000000      -0.20000000      -0.10000000 </v>
   <v>       0.10000000       0.20000000       0.10000000 </v>
   <v>       0.00000000       0.10000000      -0.10000000 </v>
   <v>      -0.00000000      -0.10000000       0.10000000 </v>
   <v>      -0.10000000      -0.10000000      -0.20000000 </v>
   <v>       0.10000000       0.10000000       0.20000000 </v>
   <v>       0.10000000       0.10000000       0.20000000 </v>
   <v>      -0.10000000      -0.10000000      -0.20000000 </v>
   <v>      -0.10000000       0.00000000       0.10000000 </v>
   <v>       0.10000000       0.00000000      -0.10000000 </v>
   <v>       0.00000000      -0.10000000       0.10000000 </v>
   <v>       0.00000000       0.10000000      -0.10000000 </v>
   <v>       0.10000000       0.20000000       0.10000000 </v>
   <v>      -0.10000000      -0.20000000      -0.10000000 </v>
   <v>       0.20000000       0.10000000       0.10000000 </v>
   <v>      -0.20000000      -0.10000000      -0.10000000 </v>
  </varray>
  <varray name="weights" >
   <v>       0.02380952 </v>
   <v>       0.02380952 </v>
   <v>       0.02380952 </v>
   <v>       0.02380952 </v>
   <v>       0.02380952 </v>
   <v>       0.02380952 </v>
   <v>       0.02380952 </v>
   <v>       0.02380952 </v>
   <v>       0.02380952 </v>
   <v>       0.02380952 </v>
   <v>       0.02380952 </v>
   <v>       0.02380952 </v>
   <v>       0.02380952 </v>
   <v>       0.02380952 </v>
   <v>       0.02380952 </v>
   <v>       0.02380952 </v>
   <v>       0.02380952 </v>
   <v>       0.02380952 </v>
   <v>       0.02380952 </v>
   <v>       0.02380952 </v>
   <v>       0.02380952 </v>
   <v>       0.02380952 </v>
   <v>       0.02380952 </v>
   <v>       0.02380952 </v>
   <v>       0.02380952 </v>
   <v>       0.02380952 </v>
   <v>       0.02380952 </v>
   <v>       0.02380952 </v>
   <v>       0.02380952 </v>
   <v>       0.02380952 </v>
   <v>       0.02380952 </v>
   <v>       0.02380952 </v>
   <v>       0.02380952 </v>
   <v>       0.02380952 </v>
   <v>       0.02380952 </v>
   <v>       0.02380952 </v>
   <v>       0.02380952 </v>
   <v>       0.02380952 </v>
   <v>       0.02380952 </v>
   <v>       0.02380952 </v>
   <v>       0.02380952 </v>
   <v>       0.02380952 </v>
  </varray>
  <kpoints_labels>
   <i name="" type="int">       1 </i>
   <i name="" type="int">       2 </i>
   <i name="" type="int">       3 </i>
   <i name="" type="int">       4 </i>
   <i name="" type="int">       5 </i>
   <i name="" type="int">       6 </i>
   <i name="" type="int">       7 </i>
   <i name="" type="int">       8 </i>
   <i name="" type="int">       9 </i>
   <i name="" type="int">      10 </i>
   <i name="" type="int">      11 </i>
   <i name="" type="int">      12 </i>
   <i name="" type="int">      13 </i>
   <i name="" type="int">      14 </i>
   <i name="" type="int">      15 </i>
   <i name="" type="int">      16 </i>
   <i name="" type="int">      17 </i>
   <i name="" type="int">      18 </i>
   <i name="" type="int">      19 </i>
   <i name="" type="int">      20 </i>
   <i name="" type="int">      21 </i>
   <i name="" type="int">      22 </i>
   <i name="" type="int">      23 </i>
   <i name="" type="int">      24 </i>
   <i name="" type="int">      25 </i>
   <i name="" type="int">      26 </i>
   <i name="" type="int">      27 </i>
   <i name="" type="int">      28 </i>
   <i name="" type="int">      29 </i>
   <i name="" type="int">      30 </i>
   <i name="" type="int">      31 </i>
   <i name="" type="int">      32 </i>
   <i name="" type="int">      33 </i>
   <i name="" type="int">      34 </i>
   <i name="" type="int">      35 </i>
   <i name="" type="int">      36 </i>
   <i name="" type="int">      37 </i>
   <i name="" type="int">      38 </i>
   <i name="" type="int">      39 </i>
   <i name="" type="int">      40 </i>
   <i name="" type="int">      41 </i>
   <i name="" type="int">      42 </i>
  </kpoints_labels>
 </kpoints>
 <parameters>
  <separator name="general" >
   <i type="string" name="SYSTEM">unknown system</i>
   <i type="logical" name="LCOMPAT"> F  </i>
  </separator>
  <separator name="electronic" >
   <i type="string" name="PREC">accura</i>
   <i name="ENMAX">    520.00000000</i>
   <i name="ENAUG">    462.75800000</i>
   <i name="EDIFF">      0.00000100</i>
   <i type="int" name="IALGO">    38</i>
   <i type="int" name="IWAVPR">    10</i>
   <i type="int" name="NBANDS">    16</i>
   <i type="int" name="NBANDSLOW">    -1</i>
   <i type="int" name="NBANDSHIGH">    -1</i>
   <i name="NELECT">     18.00000000</i>
   <i type="int" name="TURBO">     0</i>
   <i type="int" name="IRESTART">     0</i>
   <i type="int" name="NREBOOT">     0</i>
   <i type="int" name="NMIN">     0</i>
   <i name="EREF">      0.00000000</i>
   <separator name="electronic smearing" >
    <i type="int" name="ISMEAR">     0</i>
    <i name="SIGMA">      0.05000000</i>
    <i name="KSPACING">      0.50000000</i>
    <i type="logical" name="KGAMMA"> T  </i>
    <i type="logical" name="KBLOWUP"> T  </i>
   </separator>
   <separator name="electronic projectors" >
    <i type="logical" name="LREAL"> F  </i>
    <v name="ROPT">      0.00000000      0.00000000</v>
    <i type="int" name="LMAXPAW">  -100</i>
    <i type="int" name="LMAXMIX">     4</i>
    <i type="logical" name="NLSPLINE"> F  </i>
   </separator>
   <separator name="electronic startup" >
    <i type="int" name="ISTART">     0</i>
    <i type="int" name="ICHARG">    11</i>
    <i type="int" name="INIWAV">     1</i>
   </separator>
   <separator name="electronic spin" >
    <i type="int" name="ISPIN">     2</i>
    <i type="logical" name="LNONCOLLINEAR"> F  </i>
    <v name="MAGMOM">      0.60000000      0.60000000</v>
    <i name="NUPDOWN">     -1.00000000</i>
    <i type="logical" name="LSORBIT"> F  </i>
    <v name="SAXIS">      0.00000000      0.00000000      1.00000000</v>
    <i type="logical" name="LSPIRAL"> F  </i>
    <v name="QSPIRAL">      0.00000000      0.00000000      0.00000000</v>
    <i type="logical" name="LZEROZ"> F  </i>
   </separator>
   <separator name="electronic exchange-correlation" >
    <i type="logical" name="LASPH"> T  </i>
    <i type="logical" name="LMETAGGA"> F  </i>
   </separator>
   <separator name="electronic convergence" >
    <i type="int" name="NELM">   100</i>
    <i type="int" name="NELMDL">    -5</i>
    <i type="int" name="NELMIN">     2</i>
    <i name="ENINI">    520.00000000</i>
    <separator name="electronic convergence detail" >
     <i type="logical" name="LDIAG"> T  </i>
     <i type="logical" name="LSUBROT"> F  </i>
     <i name="WEIMIN">      0.00000000</i>
     <i name="EBREAK">      0.00000002</i>
     <i name="DEPER">      0.30000000</i>
     <i type="int" name="NRMM">     4</i>
     <i name="TIME">      0.40000000</i>
    </separator>
   </separator>
   <separator name="electronic mixer" >
    <i name="AMIX">      0.40000000</i>
    <i name="BMIX">      1.00000000</i>
    <i name="AMIN">      0.10000000</i>
    <i name="AMIX_MAG">      1.60000000</i>
    <i name="BMIX_MAG">      1.00000000</i>
    <separator name="electronic mixer details" >
     <i type="int" name="IMIX">     4</i>
     <i type="logical" name="MIXFIRST"> F  </i>
     <i type="int" name="MAXMIX">   -45</i>
     <i name="WC">    100.00000000</i>
     <i type="int" name="INIMIX">     1</i>
     <i type="int" name="MIXPRE">     1</i>
     <i type="int" name="MREMOVE">     5</i>
    </separator>
   </separator>
   <separator name="electronic dipolcorrection" >
    <i type="logical" name="LDIPOL"> F  </i>
    <i type="logical" name="LMONO"> F  </i>
    <i type="int" name="IDIPOL">     0</i>
    <i name="EPSILON">      1.00000000</i>
    <v name="DIPOL">   -100.00000000   -100.00000000   -100.00000000</v>
    <i name="EFIELD">      0.00000000</i>
   </separator>
  </separator>
  <separator name="grids" >
   <i type="int" name="NGX">    32</i>
   <i type="int" name="NGY">    32</i>
   <i type="int" name="NGZ">    32</i>
   <i type="int" name="NGXF">    64</i>
   <i type="int" name="NGYF">    64</i>
   <i type="int" name="NGZF">    64</i>
   <i type="logical" name="ADDGRID"> F  </i>
  </separator>
  <separator name="ionic" >
   <i type="int" name="NSW">     0</i>
   <i type="int" name="IBRION">    -1</i>
   <i type="int" name="MDALGO">     0</i>
   <i type="int" name="ISIF">     3</i>
   <i name="PSTRESS">      0.00000000</i>
   <i name="EDIFFG">     -0.01000000</i>
   <i type="int" name="NFREE">     0</i>
   <i name="POTIM">      0.50000000</i>
   <i name="SMASS">     -3.00000000</i>
   <i name="SCALEE">      1.00000000</i>
  </separator>
  <separator name="ionic md" >
   <i name="TEBEG">      0.00010000</i>
   <i name="TEEND">      0.00010000</i>
   <i type="int" name="NBLOCK">     1</i>
   <i type="int" name="KBLOCK">     1</i>
   <i type="int" name="NPACO">   256</i>
   <i name="APACO">     10.00000000</i>
  </separator>
  <separator name="symmetry" >
   <i type="int" name="ISYM">    -1</i>
   <i name="SYMPREC">      0.00001000</i>
  </separator>
  <separator name="dos" >
   <i type="int" name="LORBIT">    11</i>
   <v name="RWIGS">     -1.00000000     -1.00000000</v>
   <i type="int" name="NEDOS">   301</i>
   <i name="EMIN">     10.00000000</i>
   <i name="EMAX">    -10.00000000</i>
   <i name="EFERMI">      0.00000000</i>
  </separator>
  <separator name="writing" >
   <i type="int" name="NWRITE">     2</i>
   <i type="logical" name="LWAVE"> T  </i>
   <i type="logical" name="LDOWNSAMPLE"> F  </i>
   <i type="logical" name="LCHARG"> F  </i>
   <i type="logical" name="LPARD"> F  </i>
   <i type="logical" name="LVTOT"> F  </i>
   <i type="logical" name="LVHAR"> T  </i>
   <i type="logical" name="LELF"> F  </i>
   <i type="logical" name="LOPTICS"> F  </i>
   <v name="STM">      0.00000000      0.00000000      0.00000000      0.00000000      0.00000000      0.00000000      0.00000000</v>
  </separator>
  <separator name="performance" >
   <i type="int" name="NPAR">     4</i>
   <i type="int" name="NSIM">     4</i>
   <i type="int" name="NBLK">    -1</i>
   <i type="logical" name="LPLANE"> T  </i>
   <i type="logical" name="LSCALAPACK"> T  </i>
   <i type="logical" name="LSCAAWARE"> F  </i>
   <i type="logical" name="LSCALU"> F  </i>
   <i type="logical" name="LASYNC"> F  </i>
   <i type="logical" name="LORBITALREAL"> F  </i>
  </separator>
  <separator name="miscellaneous" >
   <i type="int" name="IDIOT">     3</i>
   <i type="int" name="PHON_NSTRUCT">    -1</i>
   <i type="logical" name="LMUSIC"> F  </i>
   <v name="POMASS">    114.82000000     74.92200000</v>
   <v name="DARWINR">      0.00000000      0.00000000</v>
   <v name="DARWINV">      1.00000000      1.00000000</v>
   <i type="logical" name="LCORR"> T  </i>
  </separator>
  <i type="logical" name="GGA_COMPAT"> T  </i>
  <i type="logical" name="LBERRY"> F  </i>
  <i type="int" name="ICORELEVEL">     0</i>
  <i type="logical" name="LDAU"> F  </i>
  <i type="int" name="I_CONSTRAINED_M">     0</i>
  <separator name="electronic exchange-correlation" >
   <i type="string" name="GGA">--</i>
   <i type="int" name="VOSKOWN">     0</i>
   <i type="logical" name="LHFCALC"> F  </i>
   <i type="string" name="PRECFOCK"></i>
   <i type="logical" name="LSYMGRAD"> F  </i>
   <i type="logical" name="LHFONE"> F  </i>
   <i type="logical" name="LRHFCALC"> F  </i>
   <i type="logical" name="LTHOMAS"> F  </i>
   <i type="logical" name="LMODELHF"> F  </i>
   <i type="logical" name="LFOCKACE"> F  </i>
   <i name="ENCUT4O">     -1.00000000</i>
   <i type="int" name="EXXOEP">     0</i>
   <i type="int" name="FOURORBIT">     0</i>
   <i name="AEXX">      0.00000000</i>
   <i name="HFALPHA">      0.00000000</i>
   <i name="MCALPHA">      0.00000000</i>
   <i name="ALDAX">      1.00000000</i>
   <i name="AGGAX">      1.00000000</i>
   <i name="ALDAC">      1.00000000</i>
   <i name="AGGAC">      1.00000000</i>
   <i type="int" name="NKREDX">     1</i>
   <i type="int" name="NKREDY">     1</i>
   <i type="int" name="NKREDZ">     1</i>
   <i type="logical" name="SHIFTRED"> F  </i>
   <i type="logical" name="ODDONLY"> F  </i>
   <i type="logical" name="EVENONLY"> F  </i>
   <i type="int" name="LMAXFOCK">     0</i>
   <i type="int" name="NMAXFOCKAE">     0</i>
   <i type="logical" name="LFOCKAEDFT"> F  </i>
   <i name="HFSCREEN">      0.00000000</i>
   <i name="HFSCREENC">      0.00000000</i>
   <i type="int" name="NBANDSGWLOW">     0</i>
  </separator>
  <separator name="vdW DFT" >
   <i type="logical" name="LUSE_VDW"> F  </i>
   <i type="int" name="IVDW_NL">     1</i>
   <i type="logical" name="LSPIN_VDW"> F  </i>
   <i name="Zab_VDW">     -0.84910000</i>
   <i name="PARAM1">      0.12340000</i>
   <i name="PARAM2">      1.00000000</i>
   <i name="PARAM3">      0.00000000</i>
  </separator>
  <separator name="model GW" >
   <i type="int" name="MODEL_GW">     0</i>
   <i name="MODEL_EPS0">     16.96413012</i>
   <i name="MODEL_ALPHA">      1.00000000</i>
  </separator>
  <separator name="linear response parameters" >
   <i type="logical" name="LEPSILON"> F  </i>
   <i type="logical" name="LRPA"> F  </i>
   <i type="logical" name="LNABLA"> F  </i>
   <i type="logical" name="LVEL"> F  </i>
   <i name="CSHIFT">      0.10000000</i>
   <i name="OMEGAMAX">     -1.00000000</i>
   <i name="DEG_THRESHOLD">      0.00200000</i>
   <i name="RTIME">     -0.10000000</i>
   <i name="WPLASMAI">      0.00000000</i>
   <v name="DFIELD">      0.00000000      0.00000000      0.00000000</v>
   <v name="WPLASMA">      0.00000000      0.00000000      0.00000000      0.00000000      0.00000000      0.00000000      0.00000000      0.00000000      0.00000000</v>
  </separator>
  <separator name="orbital magnetization" >
   <i type="logical" name="NUCIND"> F  </i>
   <v name="MAGPOS">      0.00000000      0.00000000      0.00000000</v>
   <i type="logical" name="LNICSALL"> T  </i>
   <i type="logical" name="ORBITALMAG"> F  </i>
   <i type="logical" name="LMAGBLOCH"> F  </i>
   <i type="logical" name="LCHIMAG"> F  </i>
   <i type="logical" name="LGAUGE"> T  </i>
   <i type="int" name="MAGATOM">     0</i>
   <v name="MAGDIPOL">      0.00000000      0.00000000      0.00000000</v>
   <v name="AVECCONST">      0.00000000      0.00000000      0.00000000</v>
  </separator>
  <separator name="response functions" >
   <i type="logical" name="LALL_IN_ONE"> F  </i>
   <i type="int" name="IALL_IN_ONE">    -1</i>
   <i type="int" name="NBANDS_WAVE">    -1</i>
   <i type="logical" name="LFINITE_TEMPERATURE"> F  </i>
   <i type="logical" name="LADDER"> F  </i>
   <i type="logical" name="LRPAFORCE"> F  </i>
   <i type="logical" name="LFXC"> F  </i>
   <i type="logical" name="LHARTREE"> T  </i>
   <i type="int" name="IBSE">     0</i>
   <v type="int" name="KPOINT">    -1     0     0     0</v>
   <i type="logical" name="LTCTC"> F  </i>
   <i type="logical" name="LTCTE"> F  </i>
   <i type="logical" name="LTETE"> F  </i>
   <i type="logical" name="LTRIPLET"> F  </i>
   <i type="logical" name="LFXCEPS"> F  </i>
   <i type="logical" name="LFXHEG"> F  </i>
   <i type="int" name="NATURALO">     2</i>
   <i type="logical" name="LHOLEGF"> F  </i>
   <i type="logical" name="L2ORDER"> F  </i>
   <i type="logical" name="LDMP1"> F  </i>
   <i type="logical" name="LMP2LT"> F  </i>
   <i type="logical" name="LSMP2LT"> F  </i>
   <i type="logical" name="LGWLF"> F  </i>
   <i name="ENCUTGW">     -1.60000002</i>
   <i name="ENCUTGWSOFT">     -1.60000002</i>
   <i name="ENCUTLF">     -1.00000000</i>
   <i type="logical" name="LESF_SPLINES"> F  </i>
   <i type="int" name="LMAXMP2">    -1</i>
   <i name="SCISSOR">      0.00000000</i>
   <i type="int" name="NOMEGA">     0</i>
   <i type="int" name="NOMEGAR">     0</i>
   <i type="int" name="NBANDSGW">    -1</i>
   <i type="int" name="NBANDSO">    -1</i>
   <i type="int" name="NBANDSV">    -1</i>
   <i type="int" name="NELMGW">     1</i>
   <i type="int" name="NELMHF">     1</i>
   <i type="int" name="DIM">     3</i>
   <i type="int" name="IESPILON">     4</i>
   <i type="int" name="ANTIRES">     0</i>
   <i name="OMEGAMAX">    -30.00000000</i>
   <i name="OMEGAMIN">    -30.00000000</i>
   <i name="OMEGATL">   -200.00000000</i>
   <i type="int" name="OMEGAGRID">     0</i>
   <i name="CSHIFT">     -0.10000000</i>
   <i type="logical" name="LSELFENERGY"> F  </i>
   <i type="logical" name="LSPECTRAL"> F  </i>
   <i type="logical" name="LSPECTRALGW"> F  </i>
   <i type="logical" name="LSINGLES"> F  </i>
   <i type="logical" name="LFERMIGW"> F  </i>
   <i type="logical" name="ODDONLYGW"> F  </i>
   <i type="logical" name="EVENONLYGW"> F  </i>
   <i type="int" name="NKREDLFX">     1</i>
   <i type="int" name="NKREDLFY">     1</i>
   <i type="int" name="NKREDLFZ">     1</i>
   <i type="int" name="MAXMEM">  2800</i>
   <i type="int" name="TELESCOPE">     0</i>
   <i type="int" name="NTAUPAR">    -1</i>
   <i type="int" name="NOMEGAPAR">    -1</i>
   <i name="DAMP_NEWTON">      0.80000001</i>
   <i name="LAMBDA">      1.00000000</i>
  </separator>
  <separator name="External order field" >
   <i name="OFIELD_KAPPA">      0.00000000</i>
   <v name="OFIELD_K">      0.00000000      0.00000000      0.00000000</v>
   <i name="OFIELD_Q6_NEAR">      0.00000000</i>
   <i name="OFIELD_Q6_FAR">      0.00000000</i>
   <i name="OFIELD_A">      0.00000000</i>
  </separator>
  <separator name="optional k-points parameters" >
   <i type="int" name="KPOINTS_OPT_MODE">     1</i>
   <i type="logical" name="LKPOINTS_OPT"> F  </i>
  </separator>
 </parameters>
 <atominfo>
  <atoms>       2 </atoms>
  <types>       2 </types>
  <array name="atoms" >
   <dimension dim="1">ion</dimension>
   <field type="string">element</field>
   <field type="int">atomtype</field>
   <set>
    <rc><c>In</c><c>   1</c></rc>
    <rc><c>As</c><c>   2</c></rc>
   </set>
  </array>
  <array name="atomtypes" >
   <dimension dim="1">type</dimension>
   <field type="int">atomspertype</field>
   <field type="string">element</field>
   <field>mass</field>
   <field>valence</field>
   <field type="string">pseudopotential</field>
   <set>
    <rc><c>   1</c><c>In</c><c>    114.82000000</c><c>     13.00000000</c><c> PAW_PBE In_d 06Sep2000                 </c></rc>
    <rc><c>   1</c><c>As</c><c>     74.92200000</c><c>      5.00000000</c><c> PAW_PBE As 06Sep2000                   </c></rc>
   </set>
  </array>
 </atominfo>
 <structure name="initialpos" >
  <crystal>
   <varray name="basis" >
    <v>       3.73111929      -0.00000000       2.15416231 </v>
    <v>       1.24370677       3.51773231       2.15416231 </v>
    <v>      -0.00000000      -0.00000000       4.30832462 </v>
   </varray>
   <i name="volume">     56.54710041 </i>
   <varray name="rec_basis" >
    <v>       0.26801609      -0.09475804       0.00000000 </v>
    <v>       0.00000000       0.28427405       0.00000000 </v>
    <v>      -0.13400804      -0.09475800       0.23210879 </v>
   </varray>
  </crystal>
  <varray name="positions" >
   <v>       0.25000000       0.25000000       0.25000000 </v>
   <v>       0.00000000       0.00000000       0.00000000 </v>
  </varray>
 </structure>
 <calculation>
  <scstep>
   <time name="dav">    1.11    1.13</time>
   <time name="total">    1.61    1.62</time>
   <energy>
    <i name="alphaZ">     37.49967080 </i>
    <i name="ewald">  -1174.26048609 </i>
    <i name="hartreedc">   -574.36340098 </i>
    <i name="XCdc">     30.05034480 </i>
    <i name="pawpsdc">   1321.58346504 </i>
    <i name="pawaedc">  -1291.41212967 </i>
    <i name="eentropy">     -0.00154794 </i>
    <i name="bandstr">     27.47670800 </i>
    <i name="atom">   1746.94572762 </i>
    <i name="e_fr_energy">    123.51835159 </i>
    <i name="e_wo_entrp">    123.51989953 </i>
    <i name="e_0_energy">    123.51912556 </i>
   </energy>
  </scstep>
  <scstep>
   <time name="dav">    0.95    0.95</time>
   <time name="total">    0.95    0.95</time>
   <energy>
    <i name="e_fr_energy">     10.12587163 </i>
    <i name="e_wo_entrp">     10.12815305 </i>
    <i name="e_0_energy">     10.12701234 </i>
   </energy>
  </scstep>
  <scstep>
   <time name="dav">    1.20    1.20</time>
   <time name="total">    1.20    1.20</time>
   <energy>
    <i name="e_fr_energy">      2.03577989 </i>
    <i name="e_wo_entrp">      2.03878690 </i>
    <i name="e_0_energy">      2.03728339 </i>
   </energy>
  </scstep>
  <scstep>
   <time name="dav">    0.99    0.99</time>
   <time name="total">    0.99    0.99</time>
   <energy>
    <i name="e_fr_energy">      1.85292107 </i>
    <i name="e_wo_entrp">      1.85660341 </i>
    <i name="e_0_energy">      1.85476224 </i>
   </energy>
  </scstep>
  <scstep>
   <time name="dav">    1.25    1.25</time>
   <time name="total">    1.25    1.25</time>
   <energy>
    <i name="e_fr_energy">      1.84506072 </i>
    <i name="e_wo_entrp">      1.84874301 </i>
    <i name="e_0_energy">      1.84690187 </i>
   </energy>
  </scstep>
  <scstep>
   <time name="dav">    1.11    1.11</time>
   <time name="total">    1.11    1.11</time>
   <energy>
    <i name="e_fr_energy">      1.84470835 </i>
    <i name="e_wo_entrp">      1.84839065 </i>
    <i name="e_0_energy">      1.84654950 </i>
   </energy>
  </scstep>
  <scstep>
   <time name="dav">    1.31    1.31</time>
   <time name="total">    1.31    1.31</time>
   <energy>
    <i name="e_fr_energy">      1.84470456 </i>
    <i name="e_wo_entrp">      1.84838686 </i>
    <i name="e_0_energy">      1.84654571 </i>
   </energy>
  </scstep>
  <scstep>
   <time name="dav">    0.84    0.84</time>
   <time name="total">    0.84    0.84</time>
   <energy>
    <i name="alphaZ">     37.49967080 </i>
    <i name="ewald">  -1174.26048609 </i>
    <i name="hartreedc">   -574.36340098 </i>
    <i name="XCdc">     30.05034480 </i>
    <i name="pawpsdc">   1321.58346504 </i>
    <i name="pawaedc">  -1291.41212967 </i>
    <i name="eentropy">     -0.00368230 </i>
    <i name="bandstr">    -94.19480473 </i>
    <i name="atom">   1746.94572762 </i>
    <i name="e_fr_energy">      1.84470450 </i>
    <i name="e_wo_entrp">      1.84838680 </i>
    <i name="e_0_energy">      1.84654565 </i>
   </energy>
  </scstep>
  <structure>
   <crystal>
    <varray name="basis" >
     <v>       3.73111929      -0.00000000       2.15416231 </v>
     <v>       1.24370677       3.51773231       2.15416231 </v>
     <v>      -0.00000000      -0.00000000       4.30832462 </v>
    </varray>
    <i name="volume">     56.54710041 </i>
    <varray name="rec_basis" >
     <v>       0.26801609      -0.09475804       0.00000000 </v>
     <v>       0.00000000       0.28427405       0.00000000 </v>
     <v>      -0.13400804      -0.09475800       0.23210879 </v>
    </varray>
   </crystal>
   <varray name="positions" >
    <v>       0.25000000       0.25000000       0.25000000 </v>
    <v>       0.00000000       0.00000000       0.00000000 </v>
   </varray>
  </structure>
  <varray name="forces" >
   <v>       0.00000522      -0.00001528       0.00000961 </v>
   <v>      -0.00000522       0.00001528      -0.00000961 </v>
  </varray>
  <varray name="stress" >
   <v>     362.65649926      -0.00005669       0.00063900 </v>
   <v>      -0.00003906     362.65520482       0.00005561 </v>
   <v>       0.00063902       0.00005586     362.65583871 </v>
  </varray>
  <energy>
   <i name="e_fr_energy">      1.84470450 </i>
   <i name="e_wo_entrp">      1.84838680 </i>
   <i name="e_0_energy">      1.84654565 </i>
  </energy>
  <time name="totalsc">   11.57   11.59</time>
  <eigenvalues>
   <array>
    <dimension dim="1">band</dimension>
    <dimension dim="2">kpoint</dimension>
    <dimension dim="3">spin</dimension>
    <field>eigene</field>
    <field>occ</field>
    <set>
     <set comment="spin 1">
      <set comment="kpoint 1">
       <r>  -10.0941    1.0000 </r>
       <r>  -10.0941    1.0000 </r>
       <r>  -10.0941    1.0000 </r>
       <r>   -9.9780    1.0000 </r>
       <r>   -9.9780    1.0000 </r>
       <r>   -7.4010    1.0000 </r>
       <r>    4.0240    1.0000 </r>
       <r>    4.2926    0.6669 </r>
       <r>    4.2926    0.6669 </r>
       <r>    4.2926    0.6669 </r>
       <r>    8.1914    0.0000 </r>
       <r>    8.1914    0.0000 </r>
       <r>    8.1914    0.0000 </r>
       <r>   11.7438    0.0000 </r>
       <r>   13.9041    0.0000 </r>
       <r>   13.9041    0.0000 </r>
      </set>
      <set comment="kpoint 2">
       <r>  -10.0941    1.0000 </r>
       <r>  -10.0941    1.0000 </r>
       <r>  -10.0941    1.0000 </r>
       <r>   -9.9780    1.0000 </r>
       <r>   -9.9780    1.0000 </r>
       <r>   -7.4010    1.0000 </r>
       <r>    4.0240    1.0000 </r>
       <r>    4.2926    0.6669 </r>
       <r>    4.2926    0.6669 </r>
       <r>    4.2926    0.6669 </r>
       <r>    8.1914    0.0000 </r>
       <r>    8.1914    0.0000 </r>
       <r>    8.1914    0.0000 </r>
       <r>   11.7438    0.0000 </r>
       <r>   13.9041    0.0000 </r>
       <r>   13.9041    0.0000 </r>
      </set>
      <set comment="kpoint 3">
       <r>  -10.1056    1.0000 </r>
       <r>  -10.0906    1.0000 </r>
       <r>  -10.0906    1.0000 </r>
       <r>   -9.9781    1.0000 </r>
       <r>   -9.9781    1.0000 </r>
       <r>   -7.3015    1.0000 </r>
       <r>    2.7745    1.0000 </r>
       <r>    4.1693    1.0000 </r>
       <r>    4.1693    1.0000 </r>
       <r>    5.1934    0.0000 </r>
       <r>    8.2488    0.0000 </r>
       <r>    8.3747    0.0000 </r>
       <r>    8.3747    0.0000 </r>
       <r>   12.3237    0.0000 </r>
       <r>   13.2218    0.0000 </r>
       <r>   13.2218    0.0000 </r>
      </set>
      <set comment="kpoint 4">
       <r>  -10.1056    1.0000 </r>
       <r>  -10.0906    1.0000 </r>
       <r>  -10.0906    1.0000 </r>
       <r>   -9.9781    1.0000 </r>
       <r>   -9.9781    1.0000 </r>
       <r>   -7.3015    1.0000 </r>
       <r>    2.7745    1.0000 </r>
       <r>    4.1693    1.0000 </r>
       <r>    4.1693    1.0000 </r>
       <r>    5.1934    0.0000 </r>
       <r>    8.2488    0.0000 </r>
       <r>    8.3747    0.0000 </r>
       <r>    8.3747    0.0000 </r>
       <r>   12.3237    0.0000 </r>
       <r>   13.2218    0.0000 </r>
       <r>   13.2218    0.0000 </r>
      </set>
      <set comment="kpoint 5">
       <r>  -10.1056    1.0000 </r>
       <r>  -10.0906    1.0000 </r>
       <r>  -10.0906    1.0000 </r>
       <r>   -9.9781    1.0000 </r>
       <r>   -9.9781    1.0000 </r>
       <r>   -7.3015    1.0000 </r>
       <r>    2.7745    1.0000 </r>
       <r>    4.1693    1.0000 </r>
       <r>    4.1693    1.0000 </r>
       <r>    5.1934    0.0000 </r>
       <r>    8.2488    0.0000 </r>
       <r>    8.3747    0.0000 </r>
       <r>    8.3747    0.0000 </r>
       <r>   12.3237    0.0000 </r>
       <r>   13.2218    0.0000 </r>
       <r>   13.2218    0.0000 </r>
      </set>
      <set comment="kpoint 6">
       <r>  -10.1056    1.0000 </r>
       <r>  -10.0906    1.0000 </r>
       <r>  -10.0906    1.0000 </r>
       <r>   -9.9781    1.0000 </r>
       <r>   -9.9781    1.0000 </r>
       <r>   -7.3015    1.0000 </r>
       <r>    2.7745    1.0000 </r>
       <r>    4.1693    1.0000 </r>
       <r>    4.1693    1.0000 </r>
       <r>    5.1934    0.0000 </r>
       <r>    8.2488    0.0000 </r>
       <r>    8.3747    0.0000 </r>
       <r>    8.3747    0.0000 </r>
       <r>   12.3237    0.0000 </r>
       <r>   13.2218    0.0000 </r>
       <r>   13.2218    0.0000 </r>
      </set>
      <set comment="kpoint 7">
       <r>  -10.1056    1.0000 </r>
       <r>  -10.0906    1.0000 </r>
       <r>  -10.0906    1.0000 </r>
       <r>   -9.9781    1.0000 </r>
       <r>   -9.9781    1.0000 </r>
       <r>   -7.3015    1.0000 </r>
       <r>    2.7745    1.0000 </r>
       <r>    4.1693    1.0000 </r>
       <r>    4.1693    1.0000 </r>
       <r>    5.1934    0.0000 </r>
       <r>    8.2488    0.0000 </r>
       <r>    8.3747    0.0000 </r>
       <r>    8.3747    0.0000 </r>
       <r>   12.3237    0.0000 </r>
       <r>   13.2218    0.0000 </r>
       <r>   13.2218    0.0000 </r>
      </set>
      <set comment="kpoint 8">
       <r>  -10.1056    1.0000 </r>
       <r>  -10.0906    1.0000 </r>
       <r>  -10.0906    1.0000 </r>
       <r>   -9.9781    1.0000 </r>
       <r>   -9.9781    1.0000 </r>
       <r>   -7.3015    1.0000 </r>
       <r>    2.7745    1.0000 </r>
       <r>    4.1693    1.0000 </r>
       <r>    4.1693    1.0000 </r>
       <r>    5.1934    0.0000 </r>
       <r>    8.2488    0.0000 </r>
       <r>    8.3747    0.0000 </r>
       <r>    8.3747    0.0000 </r>
       <r>   12.3237    0.0000 </r>
       <r>   13.2218    0.0000 </r>
       <r>   13.2218    0.0000 </r>
      </set>
      <set comment="kpoint 9">
       <r>  -10.1056    1.0000 </r>
       <r>  -10.0906    1.0000 </r>
       <r>  -10.0906    1.0000 </r>
       <r>   -9.9781    1.0000 </r>
       <r>   -9.9781    1.0000 </r>
       <r>   -7.3015    1.0000 </r>
       <r>    2.7745    1.0000 </r>
       <r>    4.1693    1.0000 </r>
       <r>    4.1693    1.0000 </r>
       <r>    5.1934    0.0000 </r>
       <r>    8.2488    0.0000 </r>
       <r>    8.3747    0.0000 </r>
       <r>    8.3747    0.0000 </r>
       <r>   12.3237    0.0000 </r>
       <r>   13.2218    0.0000 </r>
       <r>   13.2218    0.0000 </r>
      </set>
      <set comment="kpoint 10">
       <r>  -10.1056    1.0000 </r>
       <r>  -10.0906    1.0000 </r>
       <r>  -10.0906    1.0000 </r>
       <r>   -9.9781    1.0000 </r>
       <r>   -9.9781    1.0000 </r>
       <r>   -7.3015    1.0000 </r>
       <r>    2.7745    1.0000 </r>
       <r>    4.1693    1.0000 </r>
       <r>    4.1693    1.0000 </r>
       <r>    5.1934    0.0000 </r>
       <r>    8.2488    0.0000 </r>
       <r>    8.3747    0.0000 </r>
       <r>    8.3747    0.0000 </r>
       <r>   12.3237    0.0000 </r>
       <r>   13.2218    0.0000 </r>
       <r>   13.2218    0.0000 </r>
      </set>
      <set comment="kpoint 11">
       <r>  -10.1056    1.0000 </r>
       <r>  -10.0906    1.0000 </r>
       <r>  -10.0906    1.0000 </r>
       <r>   -9.9781    1.0000 </r>
       <r>   -9.9781    1.0000 </r>
       <r>   -7.3015    1.0000 </r>
       <r>    2.7745    1.0000 </r>
       <r>    4.1693    1.0000 </r>
       <r>    4.1693    1.0000 </r>
       <r>    5.1934    0.0000 </r>
       <r>    8.2488    0.0000 </r>
       <r>    8.3747    0.0000 </r>
       <r>    8.3747    0.0000 </r>
       <r>   12.3237    0.0000 </r>
       <r>   13.2218    0.0000 </r>
       <r>   13.2218    0.0000 </r>
      </set>
      <set comment="kpoint 12">
       <r>  -10.1056    1.0000 </r>
       <r>  -10.0906    1.0000 </r>
       <r>  -10.0906    1.0000 </r>
       <r>   -9.9781    1.0000 </r>
       <r>   -9.9781    1.0000 </r>
       <r>   -7.3015    1.0000 </r>
       <r>    2.7745    1.0000 </r>
       <r>    4.1693    1.0000 </r>
       <r>    4.1693    1.0000 </r>
       <r>    5.1934    0.0000 </r>
       <r>    8.2488    0.0000 </r>
       <r>    8.3747    0.0000 </r>
       <r>    8.3747    0.0000 </r>
       <r>   12.3237    0.0000 </r>
       <r>   13.2218    0.0000 </r>
       <r>   13.2218    0.0000 </r>
      </set>
      <set comment="kpoint 13">
       <r>  -10.1056    1.0000 </r>
       <r>  -10.0906    1.0000 </r>
       <r>  -10.0906    1.0000 </r>
       <r>   -9.9781    1.0000 </r>
       <r>   -9.9781    1.0000 </r>
       <r>   -7.3015    1.0000 </r>
       <r>    2.7745    1.0000 </r>
       <r>    4.1693    1.0000 </r>
       <r>    4.1693    1.0000 </r>
       <r>    5.1934    0.0000 </r>
       <r>    8.2488    0.0000 </r>
       <r>    8.3747    0.0000 </r>
       <r>    8.3747    0.0000 </r>
       <r>   12.3237    0.0000 </r>
       <r>   13.2218    0.0000 </r>
       <r>   13.2218    0.0000 </r>
      </set>
      <set comment="kpoint 14">
       <r>  -10.1056    1.0000 </r>
       <r>  -10.0906    1.0000 </r>
       <r>  -10.0906    1.0000 </r>
       <r>   -9.9781    1.0000 </r>
       <r>   -9.9781    1.0000 </r>
       <r>   -7.3015    1.0000 </r>
       <r>    2.7745    1.0000 </r>
       <r>    4.1693    1.0000 </r>
       <r>    4.1693    1.0000 </r>
       <r>    5.1934    0.0000 </r>
       <r>    8.2488    0.0000 </r>
       <r>    8.3747    0.0000 </r>
       <r>    8.3747    0.0000 </r>
       <r>   12.3237    0.0000 </r>
       <r>   13.2218    0.0000 </r>
       <r>   13.2218    0.0000 </r>
      </set>
      <set comment="kpoint 15">
       <r>  -10.1056    1.0000 </r>
       <r>  -10.0906    1.0000 </r>
       <r>  -10.0906    1.0000 </r>
       <r>   -9.9781    1.0000 </r>
       <r>   -9.9781    1.0000 </r>
       <r>   -7.3015    1.0000 </r>
       <r>    2.7745    1.0000 </r>
       <r>    4.1693    1.0000 </r>
       <r>    4.1693    1.0000 </r>
       <r>    5.1934    0.0000 </r>
       <r>    8.2488    0.0000 </r>
       <r>    8.3747    0.0000 </r>
       <r>    8.3747    0.0000 </r>
       <r>   12.3237    0.0000 </r>
       <r>   13.2218    0.0000 </r>
       <r>   13.2218    0.0000 </r>
      </set>
      <set comment="kpoint 16">
       <r>  -10.1056    1.0000 </r>
       <r>  -10.0906    1.0000 </r>
       <r>  -10.0906    1.0000 </r>
       <r>   -9.9781    1.0000 </r>
       <r>   -9.9781    1.0000 </r>
       <r>   -7.3015    1.0000 </r>
       <r>    2.7745    1.0000 </r>
       <r>    4.1693    1.0000 </r>
       <r>    4.1693    1.0000 </r>
       <r>    5.1934    0.0000 </r>
       <r>    8.2488    0.0000 </r>
       <r>    8.3747    0.0000 </r>
       <r>    8.3747    0.0000 </r>
       <r>   12.3237    0.0000 </r>
       <r>   13.2218    0.0000 </r>
       <r>   13.2218    0.0000 </r>
      </set>
      <set comment="kpoint 17">
       <r>  -10.1056    1.0000 </r>
       <r>  -10.0906    1.0000 </r>
       <r>  -10.0906    1.0000 </r>
       <r>   -9.9781    1.0000 </r>
       <r>   -9.9781    1.0000 </r>
       <r>   -7.3015    1.0000 </r>
       <r>    2.7745    1.0000 </r>
       <r>    4.1693    1.0000 </r>
       <r>    4.1693    1.0000 </r>
       <r>    5.1934    0.0000 </r>
       <r>    8.2488    0.0000 </r>
       <r>    8.3747    0.0000 </r>
       <r>    8.3747    0.0000 </r>
       <r>   12.3237    0.0000 </r>
       <r>   13.2218    0.0000 </r>
       <r>   13.2218    0.0000 </r>
      </set>
      <set comment="kpoint 18">
       <r>  -10.1056    1.0000 </r>
       <r>  -10.0906    1.0000 </r>
       <r>  -10.0906    1.0000 </r>
       <r>   -9.9781    1.0000 </r>
       <r>   -9.9781    1.0000 </r>
       <r>   -7.3015    1.0000 </r>
       <r>    2.7745    1.0000 </r>
       <r>    4.1693    1.0000 </r>
       <r>    4.1693    1.0000 </r>
       <r>    5.1934    0.0000 </r>
       <r>    8.2488    0.0000 </r>
       <r>    8.3747    0.0000 </r>
       <r>    8.3747    0.0000 </r>
       <r>   12.3237    0.0000 </r>
       <r>   13.2218    0.0000 </r>
       <r>   13.2218    0.0000 </r>
      </set>
      <set comment="kpoint 19">
       <r>  -10.1240    1.0000 </r>
       <r>  -10.0867    1.0000 </r>
       <r>  -10.0823    1.0000 </r>
       <r>   -9.9802    1.0000 </r>
       <r>   -9.9762    1.0000 </r>
       <r>   -7.1408    1.0000 </r>
       <r>    1.9576    1.0000 </r>
       <r>    3.5713    1.0000 </r>
       <r>    4.1474    1.0000 </r>
       <r>    5.7810    0.0000 </r>
       <r>    8.1487    0.0000 </r>
       <r>    8.4443    0.0000 </r>
       <r>    9.0547    0.0000 </r>
       <r>   12.4317    0.0000 </r>
       <r>   12.8990    0.0000 </r>
       <r>   13.1679    0.0000 </r>
      </set>
      <set comment="kpoint 20">
       <r>  -10.1240    1.0000 </r>
       <r>  -10.0867    1.0000 </r>
       <r>  -10.0823    1.0000 </r>
       <r>   -9.9802    1.0000 </r>
       <r>   -9.9762    1.0000 </r>
       <r>   -7.1408    1.0000 </r>
       <r>    1.9576    1.0000 </r>
       <r>    3.5713    1.0000 </r>
       <r>    4.1474    1.0000 </r>
       <r>    5.7810    0.0000 </r>
       <r>    8.1487    0.0000 </r>
       <r>    8.4443    0.0000 </r>
       <r>    9.0547    0.0000 </r>
       <r>   12.4317    0.0000 </r>
       <r>   12.8990    0.0000 </r>
       <r>   13.1679    0.0000 </r>
      </set>
      <set comment="kpoint 21">
       <r>  -10.1240    1.0000 </r>
       <r>  -10.0867    1.0000 </r>
       <r>  -10.0823    1.0000 </r>
       <r>   -9.9802    1.0000 </r>
       <r>   -9.9762    1.0000 </r>
       <r>   -7.1408    1.0000 </r>
       <r>    1.9576    1.0000 </r>
       <r>    3.5713    1.0000 </r>
       <r>    4.1474    1.0000 </r>
       <r>    5.7810    0.0000 </r>
       <r>    8.1487    0.0000 </r>
       <r>    8.4443    0.0000 </r>
       <r>    9.0547    0.0000 </r>
       <r>   12.4317    0.0000 </r>
       <r>   12.8990    0.0000 </r>
       <r>   13.1679    0.0000 </r>
      </set>
      <set comment="kpoint 22">
       <r>  -10.1240    1.0000 </r>
       <r>  -10.0867    1.0000 </r>
       <r>  -10.0823    1.0000 </r>
       <r>   -9.9802    1.0000 </r>
       <r>   -9.9762    1.0000 </r>
       <r>   -7.1408    1.0000 </r>
       <r>    1.9576    1.0000 </r>
       <r>    3.5713    1.0000 </r>
       <r>    4.1474    1.0000 </r>
       <r>    5.7810    0.0000 </r>
       <r>    8.1487    0.0000 </r>
       <r>    8.4443    0.0000 </r>
       <r>    9.0547    0.0000 </r>
       <r>   12.4317    0.0000 </r>
       <r>   12.8990    0.0000 </r>
       <r>   13.1679    0.0000 </r>
      </set>
      <set comment="kpoint 23">
       <r>  -10.1240    1.0000 </r>
       <r>  -10.0867    1.0000 </r>
       <r>  -10.0823    1.0000 </r>
       <r>   -9.9802    1.0000 </r>
       <r>   -9.9762    1.0000 </r>
       <r>   -7.1408    1.0000 </r>
       <r>    1.9576    1.0000 </r>
       <r>    3.5713    1.0000 </r>
       <r>    4.1474    1.0000 </r>
       <r>    5.7810    0.0000 </r>
       <r>    8.1487    0.0000 </r>
       <r>    8.4443    0.0000 </r>
       <r>    9.0547    0.0000 </r>
       <r>   12.4317    0.0000 </r>
       <r>   12.8990    0.0000 </r>
       <r>   13.1679    0.0000 </r>
      </set>
      <set comment="kpoint 24">
       <r>  -10.1240    1.0000 </r>
       <r>  -10.0867    1.0000 </r>
       <r>  -10.0823    1.0000 </r>
       <r>   -9.9802    1.0000 </r>
       <r>   -9.9762    1.0000 </r>
       <r>   -7.1408    1.0000 </r>
       <r>    1.9576    1.0000 </r>
       <r>    3.5713    1.0000 </r>
       <r>    4.1474    1.0000 </r>
       <r>    5.7810    0.0000 </r>
       <r>    8.1487    0.0000 </r>
       <r>    8.4443    0.0000 </r>
       <r>    9.0547    0.0000 </r>
       <r>   12.4317    0.0000 </r>
       <r>   12.8990    0.0000 </r>
       <r>   13.1679    0.0000 </r>
      </set>
      <set comment="kpoint 25">
       <r>  -10.1240    1.0000 </r>
       <r>  -10.0867    1.0000 </r>
       <r>  -10.0823    1.0000 </r>
       <r>   -9.9802    1.0000 </r>
       <r>   -9.9762    1.0000 </r>
       <r>   -7.1408    1.0000 </r>
       <r>    1.9576    1.0000 </r>
       <r>    3.5713    1.0000 </r>
       <r>    4.1474    1.0000 </r>
       <r>    5.7810    0.0000 </r>
       <r>    8.1487    0.0000 </r>
       <r>    8.4443    0.0000 </r>
       <r>    9.0547    0.0000 </r>
       <r>   12.4317    0.0000 </r>
       <r>   12.8990    0.0000 </r>
       <r>   13.1679    0.0000 </r>
      </set>
      <set comment="kpoint 26">
       <r>  -10.1240    1.0000 </r>
       <r>  -10.0867    1.0000 </r>
       <r>  -10.0823    1.0000 </r>
       <r>   -9.9802    1.0000 </r>
       <r>   -9.9762    1.0000 </r>
       <r>   -7.1408    1.0000 </r>
       <r>    1.9576    1.0000 </r>
       <r>    3.5713    1.0000 </r>
       <r>    4.1474    1.0000 </r>
       <r>    5.7810    0.0000 </r>
       <r>    8.1487    0.0000 </r>
       <r>    8.4443    0.0000 </r>
       <r>    9.0547    0.0000 </r>
       <r>   12.4317    0.0000 </r>
       <r>   12.8990    0.0000 </r>
       <r>   13.1679    0.0000 </r>
      </set>
      <set comment="kpoint 27">
       <r>  -10.1240    1.0000 </r>
       <r>  -10.0867    1.0000 </r>
       <r>  -10.0823    1.0000 </r>
       <r>   -9.9802    1.0000 </r>
       <r>   -9.9762    1.0000 </r>
       <r>   -7.1408    1.0000 </r>
       <r>    1.9576    1.0000 </r>
       <r>    3.5713    1.0000 </r>
       <r>    4.1474    1.0000 </r>
       <r>    5.7810    0.0000 </r>
       <r>    8.1487    0.0000 </r>
       <r>    8.4443    0.0000 </r>
       <r>    9.0547    0.0000 </r>
       <r>   12.4317    0.0000 </r>
       <r>   12.8990    0.0000 </r>
       <r>   13.1679    0.0000 </r>
      </set>
      <set comment="kpoint 28">
       <r>  -10.1240    1.0000 </r>
       <r>  -10.0867    1.0000 </r>
       <r>  -10.0823    1.0000 </r>
       <r>   -9.9802    1.0000 </r>
       <r>   -9.9762    1.0000 </r>
       <r>   -7.1408    1.0000 </r>
       <r>    1.9576    1.0000 </r>
       <r>    3.5713    1.0000 </r>
       <r>    4.1474    1.0000 </r>
       <r>    5.7810    0.0000 </r>
       <r>    8.1487    0.0000 </r>
       <r>    8.4443    0.0000 </r>
       <r>    9.0547    0.0000 </r>
       <r>   12.4317    0.0000 </r>
       <r>   12.8990    0.0000 </r>
       <r>   13.1679    0.0000 </r>
      </set>
      <set comment="kpoint 29">
       <r>  -10.1240    1.0000 </r>
       <r>  -10.0867    1.0000 </r>
       <r>  -10.0823    1.0000 </r>
       <r>   -9.9802    1.0000 </r>
       <r>   -9.9762    1.0000 </r>
       <r>   -7.1408    1.0000 </r>
       <r>    1.9576    1.0000 </r>
       <r>    3.5713    1.0000 </r>
       <r>    4.1474    1.0000 </r>
       <r>    5.7810    0.0000 </r>
       <r>    8.1487    0.0000 </r>
       <r>    8.4443    0.0000 </r>
       <r>    9.0547    0.0000 </r>
       <r>   12.4317    0.0000 </r>
       <r>   12.8990    0.0000 </r>
       <r>   13.1679    0.0000 </r>
      </set>
      <set comment="kpoint 30">
       <r>  -10.1240    1.0000 </r>
       <r>  -10.0867    1.0000 </r>
       <r>  -10.0823    1.0000 </r>
       <r>   -9.9802    1.0000 </r>
       <r>   -9.9762    1.0000 </r>
       <r>   -7.1408    1.0000 </r>
       <r>    1.9576    1.0000 </r>
       <r>    3.5713    1.0000 </r>
       <r>    4.1474    1.0000 </r>
       <r>    5.7810    0.0000 </r>
       <r>    8.1487    0.0000 </r>
       <r>    8.4443    0.0000 </r>
       <r>    9.0547    0.0000 </r>
       <r>   12.4317    0.0000 </r>
       <r>   12.8990    0.0000 </r>
       <r>   13.1679    0.0000 </r>
      </set>
      <set comment="kpoint 31">
       <r>  -10.1240    1.0000 </r>
       <r>  -10.0867    1.0000 </r>
       <r>  -10.0823    1.0000 </r>
       <r>   -9.9802    1.0000 </r>
       <r>   -9.9762    1.0000 </r>
       <r>   -7.1408    1.0000 </r>
       <r>    1.9576    1.0000 </r>
       <r>    3.5713    1.0000 </r>
       <r>    4.1474    1.0000 </r>
       <r>    5.7810    0.0000 </r>
       <r>    8.1487    0.0000 </r>
       <r>    8.4443    0.0000 </r>
       <r>    9.0547    0.0000 </r>
       <r>   12.4317    0.0000 </r>
       <r>   12.8990    0.0000 </r>
       <r>   13.1679    0.0000 </r>
      </set>
      <set comment="kpoint 32">
       <r>  -10.1240    1.0000 </r>
       <r>  -10.0867    1.0000 </r>
       <r>  -10.0823    1.0000 </r>
       <r>   -9.9802    1.0000 </r>
       <r>   -9.9762    1.0000 </r>
       <r>   -7.1408    1.0000 </r>
       <r>    1.9576    1.0000 </r>
       <r>    3.5713    1.0000 </r>
       <r>    4.1474    1.0000 </r>
       <r>    5.7810    0.0000 </r>
       <r>    8.1487    0.0000 </r>
       <r>    8.4443    0.0000 </r>
       <r>    9.0547    0.0000 </r>
       <r>   12.4317    0.0000 </r>
       <r>   12.8990    0.0000 </r>
       <r>   13.1679    0.0000 </r>
      </set>
      <set comment="kpoint 33">
       <r>  -10.1240    1.0000 </r>
       <r>  -10.0867    1.0000 </r>
       <r>  -10.0823    1.0000 </r>
       <r>   -9.9802    1.0000 </r>
       <r>   -9.9762    1.0000 </r>
       <r>   -7.1408    1.0000 </r>
       <r>    1.9576    1.0000 </r>
       <r>    3.5713    1.0000 </r>
       <r>    4.1474    1.0000 </r>
       <r>    5.7810    0.0000 </r>
       <r>    8.1487    0.0000 </r>
       <r>    8.4443    0.0000 </r>
       <r>    9.0547    0.0000 </r>
       <r>   12.4317    0.0000 </r>
       <r>   12.8990    0.0000 </r>
       <r>   13.1679    0.0000 </r>
      </set>
      <set comment="kpoint 34">
       <r>  -10.1240    1.0000 </r>
       <r>  -10.0867    1.0000 </r>
       <r>  -10.0823    1.0000 </r>
       <r>   -9.9802    1.0000 </r>
       <r>   -9.9762    1.0000 </r>
       <r>   -7.1408    1.0000 </r>
       <r>    1.9576    1.0000 </r>
       <r>    3.5713    1.0000 </r>
       <r>    4.1474    1.0000 </r>
       <r>    5.7810    0.0000 </r>
       <r>    8.1487    0.0000 </r>
       <r>    8.4443    0.0000 </r>
       <r>    9.0547    0.0000 </r>
       <r>   12.4317    0.0000 </r>
       <r>   12.8990    0.0000 </r>
       <r>   13.1679    0.0000 </r>
      </set>
      <set comment="kpoint 35">
       <r>  -10.1240    1.0000 </r>
       <r>  -10.0867    1.0000 </r>
       <r>  -10.0823    1.0000 </r>
       <r>   -9.9802    1.0000 </r>
       <r>   -9.9762    1.0000 </r>
       <r>   -7.1408    1.0000 </r>
       <r>    1.9576    1.0000 </r>
       <r>    3.5713    1.0000 </r>
       <r>    4.1474    1.0000 </r>
       <r>    5.7810    0.0000 </r>
       <r>    8.1487    0.0000 </r>
       <r>    8.4443    0.0000 </r>
       <r>    9.0547    0.0000 </r>
       <r>   12.4317    0.0000 </r>
       <r>   12.8990    0.0000 </r>
       <r>   13.1679    0.0000 </r>
      </set>
      <set comment="kpoint 36">
       <r>  -10.1240    1.0000 </r>
       <r>  -10.0867    1.0000 </r>
       <r>  -10.0823    1.0000 </r>
       <r>   -9.9802    1.0000 </r>
       <r>   -9.9762    1.0000 </r>
       <r>   -7.1408    1.0000 </r>
       <r>    1.9576    1.0000 </r>
       <r>    3.5713    1.0000 </r>
       <r>    4.1474    1.0000 </r>
       <r>    5.7810    0.0000 </r>
       <r>    8.1487    0.0000 </r>
       <r>    8.4443    0.0000 </r>
       <r>    9.0547    0.0000 </r>
       <r>   12.4317    0.0000 </r>
       <r>   12.8990    0.0000 </r>
       <r>   13.1679    0.0000 </r>
      </set>
      <set comment="kpoint 37">
       <r>  -10.1240    1.0000 </r>
       <r>  -10.0867    1.0000 </r>
       <r>  -10.0823    1.0000 </r>
       <r>   -9.9802    1.0000 </r>
       <r>   -9.9762    1.0000 </r>
       <r>   -7.1408    1.0000 </r>
       <r>    1.9576    1.0000 </r>
       <r>    3.5713    1.0000 </r>
       <r>    4.1474    1.0000 </r>
       <r>    5.7810    0.0000 </r>
       <r>    8.1487    0.0000 </r>
       <r>    8.4443    0.0000 </r>
       <r>    9.0547    0.0000 </r>
       <r>   12.4317    0.0000 </r>
       <r>   12.8990    0.0000 </r>
       <r>   13.1679    0.0000 </r>
      </set>
      <set comment="kpoint 38">
       <r>  -10.1240    1.0000 </r>
       <r>  -10.0867    1.0000 </r>
       <r>  -10.0823    1.0000 </r>
       <r>   -9.9802    1.0000 </r>
       <r>   -9.9762    1.0000 </r>
       <r>   -7.1408    1.0000 </r>
       <r>    1.9576    1.0000 </r>
       <r>    3.5713    1.0000 </r>
       <r>    4.1474    1.0000 </r>
       <r>    5.7810    0.0000 </r>
       <r>    8.1487    0.0000 </r>
       <r>    8.4443    0.0000 </r>
       <r>    9.0547    0.0000 </r>
       <r>   12.4317    0.0000 </r>
       <r>   12.8990    0.0000 </r>
       <r>   13.1679    0.0000 </r>
      </set>
      <set comment="kpoint 39">
       <r>  -10.1240    1.0000 </r>
       <r>  -10.0867    1.0000 </r>
       <r>  -10.0823    1.0000 </r>
       <r>   -9.9802    1.0000 </r>
       <r>   -9.9762    1.0000 </r>
       <r>   -7.1408    1.0000 </r>
       <r>    1.9576    1.0000 </r>
       <r>    3.5713    1.0000 </r>
       <r>    4.1474    1.0000 </r>
       <r>    5.7810    0.0000 </r>
       <r>    8.1487    0.0000 </r>
       <r>    8.4443    0.0000 </r>
       <r>    9.0547    0.0000 </r>
       <r>   12.4317    0.0000 </r>
       <r>   12.8990    0.0000 </r>
       <r>   13.1679    0.0000 </r>
      </set>
      <set comment="kpoint 40">
       <r>  -10.1240    1.0000 </r>
       <r>  -10.0867    1.0000 </r>
       <r>  -10.0823    1.0000 </r>
       <r>   -9.9802    1.0000 </r>
       <r>   -9.9762    1.0000 </r>
       <r>   -7.1408    1.0000 </r>
       <r>    1.9576    1.0000 </r>
       <r>    3.5713    1.0000 </r>
       <r>    4.1474    1.0000 </r>
       <r>    5.7810    0.0000 </r>
       <r>    8.1487    0.0000 </r>
       <r>    8.4443    0.0000 </r>
       <r>    9.0547    0.0000 </r>
       <r>   12.4317    0.0000 </r>
       <r>   12.8990    0.0000 </r>
       <r>   13.1679    0.0000 </r>
      </set>
      <set comment="kpoint 41">
       <r>  -10.1240    1.0000 </r>
       <r>  -10.0867    1.0000 </r>
       <r>  -10.0823    1.0000 </r>
       <r>   -9.9802    1.0000 </r>
       <r>   -9.9762    1.0000 </r>
       <r>   -7.1408    1.0000 </r>
       <r>    1.9576    1.0000 </r>
       <r>    3.5713    1.0000 </r>
       <r>    4.1474    1.0000 </r>
       <r>    5.7810    0.0000 </r>
       <r>    8.1487    0.0000 </r>
       <r>    8.4443    0.0000 </r>
       <r>    9.0547    0.0000 </r>
       <r>   12.4317    0.0000 </r>
       <r>   12.8990    0.0000 </r>
       <r>   13.1679    0.0000 </r>
      </set>
      <set comment="kpoint 42">
       <r>  -10.1240    1.0000 </r>
       <r>  -10.0867    1.0000 </r>
       <r>  -10.0823    1.0000 </r>
       <r>   -9.9802    1.0000 </r>
       <r>   -9.9762    1.0000 </r>
       <r>   -7.1408    1.0000 </r>
       <r>    1.9576    1.0000 </r>
       <r>    3.5713    1.0000 </r>
       <r>    4.1474    1.0000 </r>
       <r>    5.7810    0.0000 </r>
       <r>    8.1487    0.0000 </r>
       <r>    8.4443    0.0000 </r>
       <r>    9.0547    0.0000 </r>
       <r>   12.4317    0.0000 </r>
       <r>   12.8990    0.0000 </r>
       <r>   13.1679    0.0000 </r>
      </set>
     </set>
     <set comment="spin 2">
      <set comment="kpoint 1">
       <r>  -10.0941    1.0000 </r>
       <r>  -10.0941    1.0000 </r>
       <r>  -10.0941    1.0000 </r>
       <r>   -9.9780    1.0000 </r>
       <r>   -9.9780    1.0000 </r>
       <r>   -7.4010    1.0000 </r>
       <r>    4.0240    1.0000 </r>
       <r>    4.2926    0.6670 </r>
       <r>    4.2926    0.6669 </r>
       <r>    4.2926    0.6669 </r>
       <r>    8.1914    0.0000 </r>
       <r>    8.1914    0.0000 </r>
       <r>    8.1914    0.0000 </r>
       <r>   11.7438    0.0000 </r>
       <r>   13.9041    0.0000 </r>
       <r>   13.9041    0.0000 </r>
      </set>
      <set comment="kpoint 2">
       <r>  -10.0941    1.0000 </r>
       <r>  -10.0941    1.0000 </r>
       <r>  -10.0941    1.0000 </r>
       <r>   -9.9780    1.0000 </r>
       <r>   -9.9780    1.0000 </r>
       <r>   -7.4010    1.0000 </r>
       <r>    4.0240    1.0000 </r>
       <r>    4.2926    0.6670 </r>
       <r>    4.2926    0.6669 </r>
       <r>    4.2926    0.6669 </r>
       <r>    8.1914    0.0000 </r>
       <r>    8.1914    0.0000 </r>
       <r>    8.1914    0.0000 </r>
       <r>   11.7438    0.0000 </r>
       <r>   13.9041    0.0000 </r>
       <r>   13.9041    0.0000 </r>
      </set>
      <set comment="kpoint 3">
       <r>  -10.1056    1.0000 </r>
       <r>  -10.0906    1.0000 </r>
       <r>  -10.0906    1.0000 </r>
       <r>   -9.9781    1.0000 </r>
       <r>   -9.9781    1.0000 </r>
       <r>   -7.3015    1.0000 </r>
       <r>    2.7745    1.0000 </r>
       <r>    4.1693    1.0000 </r>
       <r>    4.1693    1.0000 </r>
       <r>    5.1934    0.0000 </r>
       <r>    8.2488    0.0000 </r>
       <r>    8.3747    0.0000 </r>
       <r>    8.3747    0.0000 </r>
       <r>   12.3238    0.0000 </r>
       <r>   13.2218    0.0000 </r>
       <r>   13.2218    0.0000 </r>
      </set>
      <set comment="kpoint 4">
       <r>  -10.1056    1.0000 </r>
       <r>  -10.0906    1.0000 </r>
       <r>  -10.0906    1.0000 </r>
       <r>   -9.9781    1.0000 </r>
       <r>   -9.9781    1.0000 </r>
       <r>   -7.3015    1.0000 </r>
       <r>    2.7745    1.0000 </r>
       <r>    4.1693    1.0000 </r>
       <r>    4.1693    1.0000 </r>
       <r>    5.1934    0.0000 </r>
       <r>    8.2488    0.0000 </r>
       <r>    8.3747    0.0000 </r>
       <r>    8.3747    0.0000 </r>
       <r>   12.3238    0.0000 </r>
       <r>   13.2218    0.0000 </r>
       <r>   13.2218    0.0000 </r>
      </set>
      <set comment="kpoint 5">
       <r>  -10.1056    1.0000 </r>
       <r>  -10.0906    1.0000 </r>
       <r>  -10.0906    1.0000 </r>
       <r>   -9.9781    1.0000 </r>
       <r>   -9.9781    1.0000 </r>
       <r>   -7.3015    1.0000 </r>
       <r>    2.7745    1.0000 </r>
       <r>    4.1693    1.0000 </r>
       <r>    4.1693    1.0000 </r>
       <r>    5.1934    0.0000 </r>
       <r>    8.2488    0.0000 </r>
       <r>    8.3747    0.0000 </r>
       <r>    8.3747    0.0000 </r>
       <r>   12.3238    0.0000 </r>
       <r>   13.2218    0.0000 </r>
       <r>   13.2218    0.0000 </r>
      </set>
      <set comment="kpoint 6">
       <r>  -10.1056    1.0000 </r>
       <r>  -10.0906    1.0000 </r>
       <r>  -10.0906    1.0000 </r>
       <r>   -9.9781    1.0000 </r>
       <r>   -9.9781    1.0000 </r>
       <r>   -7.3015    1.0000 </r>
       <r>    2.7745    1.0000 </r>
       <r>    4.1693    1.0000 </r>
       <r>    4.1693    1.0000 </r>
       <r>    5.1934    0.0000 </r>
       <r>    8.2488    0.0000 </r>
       <r>    8.3747    0.0000 </r>
       <r>    8.3747    0.0000 </r>
       <r>   12.3238    0.0000 </r>
       <r>   13.2218    0.0000 </r>
       <r>   13.2218    0.0000 </r>
      </set>
      <set comment="kpoint 7">
       <r>  -10.1056    1.0000 </r>
       <r>  -10.0906    1.0000 </r>
       <r>  -10.0906    1.0000 </r>
       <r>   -9.9781    1.0000 </r>
       <r>   -9.9781    1.0000 </r>
       <r>   -7.3015    1.0000 </r>
       <r>    2.7745    1.0000 </r>
       <r>    4.1693    1.0000 </r>
       <r>    4.1693    1.0000 </r>
       <r>    5.1934    0.0000 </r>
       <r>    8.2488    0.0000 </r>
       <r>    8.3747    0.0000 </r>
       <r>    8.3747    0.0000 </r>
       <r>   12.3238    0.0000 </r>
       <r>   13.2218    0.0000 </r>
       <r>   13.2218    0.0000 </r>
      </set>
      <set comment="kpoint 8">
       <r>  -10.1056    1.0000 </r>
       <r>  -10.0906    1.0000 </r>
       <r>  -10.0906    1.0000 </r>
       <r>   -9.9781    1.0000 </r>
       <r>   -9.9781    1.0000 </r>
       <r>   -7.3015    1.0000 </r>
       <r>    2.7745    1.0000 </r>
       <r>    4.1693    1.0000 </r>
       <r>    4.1693    1.0000 </r>
       <r>    5.1934    0.0000 </r>
       <r>    8.2488    0.0000 </r>
       <r>    8.3747    0.0000 </r>
       <r>    8.3747    0.0000 </r>
       <r>   12.3238    0.0000 </r>
       <r>   13.2218    0.0000 </r>
       <r>   13.2218    0.0000 </r>
      </set>
      <set comment="kpoint 9">
       <r>  -10.1056    1.0000 </r>
       <r>  -10.0906    1.0000 </r>
       <r>  -10.0906    1.0000 </r>
       <r>   -9.9781    1.0000 </r>
       <r>   -9.9781    1.0000 </r>
       <r>   -7.3015    1.0000 </r>
       <r>    2.7745    1.0000 </r>
       <r>    4.1693    1.0000 </r>
       <r>    4.1693    1.0000 </r>
       <r>    5.1934    0.0000 </r>
       <r>    8.2488    0.0000 </r>
       <r>    8.3747    0.0000 </r>
       <r>    8.3747    0.0000 </r>
       <r>   12.3238    0.0000 </r>
       <r>   13.2218    0.0000 </r>
       <r>   13.2218    0.0000 </r>
      </set>
      <set comment="kpoint 10">
       <r>  -10.1056    1.0000 </r>
       <r>  -10.0906    1.0000 </r>
       <r>  -10.0906    1.0000 </r>
       <r>   -9.9781    1.0000 </r>
       <r>   -9.9781    1.0000 </r>
       <r>   -7.3015    1.0000 </r>
       <r>    2.7745    1.0000 </r>
       <r>    4.1693    1.0000 </r>
       <r>    4.1693    1.0000 </r>
       <r>    5.1934    0.0000 </r>
       <r>    8.2488    0.0000 </r>
       <r>    8.3747    0.0000 </r>
       <r>    8.3747    0.0000 </r>
       <r>   12.3238    0.0000 </r>
       <r>   13.2218    0.0000 </r>
       <r>   13.2218    0.0000 </r>
      </set>
      <set comment="kpoint 11">
       <r>  -10.1056    1.0000 </r>
       <r>  -10.0906    1.0000 </r>
       <r>  -10.0906    1.0000 </r>
       <r>   -9.9781    1.0000 </r>
       <r>   -9.9781    1.0000 </r>
       <r>   -7.3015    1.0000 </r>
       <r>    2.7745    1.0000 </r>
       <r>    4.1693    1.0000 </r>
       <r>    4.1693    1.0000 </r>
       <r>    5.1934    0.0000 </r>
       <r>    8.2488    0.0000 </r>
       <r>    8.3747    0.0000 </r>
       <r>    8.3747    0.0000 </r>
       <r>   12.3238    0.0000 </r>
       <r>   13.2218    0.0000 </r>
       <r>   13.2218    0.0000 </r>
      </set>
      <set comment="kpoint 12">
       <r>  -10.1056    1.0000 </r>
       <r>  -10.0906    1.0000 </r>
       <r>  -10.0906    1.0000 </r>
       <r>   -9.9781    1.0000 </r>
       <r>   -9.9781    1.0000 </r>
       <r>   -7.3015    1.0000 </r>
       <r>    2.7745    1.0000 </r>
       <r>    4.1693    1.0000 </r>
       <r>    4.1693    1.0000 </r>
       <r>    5.1934    0.0000 </r>
       <r>    8.2488    0.0000 </r>
       <r>    8.3747    0.0000 </r>
       <r>    8.3747    0.0000 </r>
       <r>   12.3238    0.0000 </r>
       <r>   13.2218    0.0000 </r>
       <r>   13.2218    0.0000 </r>
      </set>
      <set comment="kpoint 13">
       <r>  -10.1056    1.0000 </r>
       <r>  -10.0906    1.0000 </r>
       <r>  -10.0906    1.0000 </r>
       <r>   -9.9781    1.0000 </r>
       <r>   -9.9781    1.0000 </r>
       <r>   -7.3015    1.0000 </r>
       <r>    2.7745    1.0000 </r>
       <r>    4.1693    1.0000 </r>
       <r>    4.1693    1.0000 </r>
       <r>    5.1934    0.0000 </r>
       <r>    8.2488    0.0000 </r>
       <r>    8.3747    0.0000 </r>
       <r>    8.3747    0.0000 </r>
       <r>   12.3238    0.0000 </r>
       <r>   13.2218    0.0000 </r>
       <r>   13.2218    0.0000 </r>
      </set>
      <set comment="kpoint 14">
       <r>  -10.1056    1.0000 </r>
       <r>  -10.0906    1.0000 </r>
       <r>  -10.0906    1.0000 </r>
       <r>   -9.9781    1.0000 </r>
       <r>   -9.9781    1.0000 </r>
       <r>   -7.3015    1.0000 </r>
       <r>    2.7745    1.0000 </r>
       <r>    4.1693    1.0000 </r>
       <r>    4.1693    1.0000 </r>
       <r>    5.1934    0.0000 </r>
       <r>    8.2488    0.0000 </r>
       <r>    8.3747    0.0000 </r>
       <r>    8.3747    0.0000 </r>
       <r>   12.3238    0.0000 </r>
       <r>   13.2218    0.0000 </r>
       <r>   13.2218    0.0000 </r>
      </set>
      <set comment="kpoint 15">
       <r>  -10.1056    1.0000 </r>
       <r>  -10.0906    1.0000 </r>
       <r>  -10.0906    1.0000 </r>
       <r>   -9.9781    1.0000 </r>
       <r>   -9.9781    1.0000 </r>
       <r>   -7.3015    1.0000 </r>
       <r>    2.7745    1.0000 </r>
       <r>    4.1693    1.0000 </r>
       <r>    4.1693    1.0000 </r>
       <r>    5.1934    0.0000 </r>
       <r>    8.2488    0.0000 </r>
       <r>    8.3747    0.0000 </r>
       <r>    8.3747    0.0000 </r>
       <r>   12.3238    0.0000 </r>
       <r>   13.2218    0.0000 </r>
       <r>   13.2218    0.0000 </r>
      </set>
      <set comment="kpoint 16">
       <r>  -10.1056    1.0000 </r>
       <r>  -10.0906    1.0000 </r>
       <r>  -10.0906    1.0000 </r>
       <r>   -9.9781    1.0000 </r>
       <r>   -9.9781    1.0000 </r>
       <r>   -7.3015    1.0000 </r>
       <r>    2.7745    1.0000 </r>
       <r>    4.1693    1.0000 </r>
       <r>    4.1693    1.0000 </r>
       <r>    5.1934    0.0000 </r>
       <r>    8.2488    0.0000 </r>
       <r>    8.3747    0.0000 </r>
       <r>    8.3747    0.0000 </r>
       <r>   12.3238    0.0000 </r>
       <r>   13.2218    0.0000 </r>
       <r>   13.2218    0.0000 </r>
      </set>
      <set comment="kpoint 17">
       <r>  -10.1056    1.0000 </r>
       <r>  -10.0906    1.0000 </r>
       <r>  -10.0906    1.0000 </r>
       <r>   -9.9781    1.0000 </r>
       <r>   -9.9781    1.0000 </r>
       <r>   -7.3015    1.0000 </r>
       <r>    2.7745    1.0000 </r>
       <r>    4.1693    1.0000 </r>
       <r>    4.1693    1.0000 </r>
       <r>    5.1934    0.0000 </r>
       <r>    8.2488    0.0000 </r>
       <r>    8.3747    0.0000 </r>
       <r>    8.3747    0.0000 </r>
       <r>   12.3238    0.0000 </r>
       <r>   13.2218    0.0000 </r>
       <r>   13.2218    0.0000 </r>
      </set>
      <set comment="kpoint 18">
       <r>  -10.1056    1.0000 </r>
       <r>  -10.0906    1.0000 </r>
       <r>  -10.0906    1.0000 </r>
       <r>   -9.9781    1.0000 </r>
       <r>   -9.9781    1.0000 </r>
       <r>   -7.3015    1.0000 </r>
       <r>    2.7745    1.0000 </r>
       <r>    4.1693    1.0000 </r>
       <r>    4.1693    1.0000 </r>
       <r>    5.1934    0.0000 </r>
       <r>    8.2488    0.0000 </r>
       <r>    8.3747    0.0000 </r>
       <r>    8.3747    0.0000 </r>
       <r>   12.3238    0.0000 </r>
       <r>   13.2218    0.0000 </r>
       <r>   13.2218    0.0000 </r>
      </set>
      <set comment="kpoint 19">
       <r>  -10.1240    1.0000 </r>
       <r>  -10.0867    1.0000 </r>
       <r>  -10.0823    1.0000 </r>
       <r>   -9.9802    1.0000 </r>
       <r>   -9.9762    1.0000 </r>
       <r>   -7.1408    1.0000 </r>
       <r>    1.9576    1.0000 </r>
       <r>    3.5713    1.0000 </r>
       <r>    4.1474    1.0000 </r>
       <r>    5.7809    0.0000 </r>
       <r>    8.1487    0.0000 </r>
       <r>    8.4443    0.0000 </r>
       <r>    9.0547    0.0000 </r>
       <r>   12.4318    0.0000 </r>
       <r>   12.8990    0.0000 </r>
       <r>   13.1679    0.0000 </r>
      </set>
      <set comment="kpoint 20">
       <r>  -10.1240    1.0000 </r>
       <r>  -10.0867    1.0000 </r>
       <r>  -10.0823    1.0000 </r>
       <r>   -9.9802    1.0000 </r>
       <r>   -9.9762    1.0000 </r>
       <r>   -7.1408    1.0000 </r>
       <r>    1.9576    1.0000 </r>
       <r>    3.5713    1.0000 </r>
       <r>    4.1474    1.0000 </r>
       <r>    5.7809    0.0000 </r>
       <r>    8.1487    0.0000 </r>
       <r>    8.4443    0.0000 </r>
       <r>    9.0547    0.0000 </r>
       <r>   12.4318    0.0000 </r>
       <r>   12.8990    0.0000 </r>
       <r>   13.1679    0.0000 </r>
      </set>
      <set comment="kpoint 21">
       <r>  -10.1240    1.0000 </r>
       <r>  -10.0867    1.0000 </r>
       <r>  -10.0823    1.0000 </r>
       <r>   -9.9802    1.0000 </r>
       <r>   -9.9762    1.0000 </r>
       <r>   -7.1408    1.0000 </r>
       <r>    1.9576    1.0000 </r>
       <r>    3.5713    1.0000 </r>
       <r>    4.1474    1.0000 </r>
       <r>    5.7809    0.0000 </r>
       <r>    8.1487    0.0000 </r>
       <r>    8.4443    0.0000 </r>
       <r>    9.0547    0.0000 </r>
       <r>   12.4318    0.0000 </r>
       <r>   12.8990    0.0000 </r>
       <r>   13.1679    0.0000 </r>
      </set>
      <set comment="kpoint 22">
       <r>  -10.1240    1.0000 </r>
       <r>  -10.0867    1.0000 </r>
       <r>  -10.0823    1.0000 </r>
       <r>   -9.9802    1.0000 </r>
       <r>   -9.9762    1.0000 </r>
       <r>   -7.1408    1.0000 </r>
       <r>    1.9576    1.0000 </r>
       <r>    3.5713    1.0000 </r>
       <r>    4.1474    1.0000 </r>
       <r>    5.7809    0.0000 </r>
       <r>    8.1487    0.0000 </r>
       <r>    8.4443    0.0000 </r>
       <r>    9.0547    0.0000 </r>
       <r>   12.4318    0.0000 </r>
       <r>   12.8990    0.0000 </r>
       <r>   13.1679    0.0000 </r>
      </set>
      <set comment="kpoint 23">
       <r>  -10.1240    1.0000 </r>
       <r>  -10.0867    1.0000 </r>
       <r>  -10.0823    1.0000 </r>
       <r>   -9.9802    1.0000 </r>
       <r>   -9.9762    1.0000 </r>
       <r>   -7.1408    1.0000 </r>
       <r>    1.9576    1.0000 </r>
       <r>    3.5713    1.0000 </r>
       <r>    4.1474    1.0000 </r>
       <r>    5.7809    0.0000 </r>
       <r>    8.1487    0.0000 </r>
       <r>    8.4443    0.0000 </r>
       <r>    9.0547    0.0000 </r>
       <r>   12.4318    0.0000 </r>
       <r>   12.8990    0.0000 </r>
       <r>   13.1679    0.0000 </r>
      </set>
      <set comment="kpoint 24">
       <r>  -10.1240    1.0000 </r>
       <r>  -10.0867    1.0000 </r>
       <r>  -10.0823    1.0000 </r>
       <r>   -9.9802    1.0000 </r>
       <r>   -9.9762    1.0000 </r>
       <r>   -7.1408    1.0000 </r>
       <r>    1.9576    1.0000 </r>
       <r>    3.5713    1.0000 </r>
       <r>    4.1474    1.0000 </r>
       <r>    5.7809    0.0000 </r>
       <r>    8.1487    0.0000 </r>
       <r>    8.4443    0.0000 </r>
       <r>    9.0547    0.0000 </r>
       <r>   12.4318    0.0000 </r>
       <r>   12.8990    0.0000 </r>
       <r>   13.1679    0.0000 </r>
      </set>
      <set comment="kpoint 25">
       <r>  -10.1240    1.0000 </r>
       <r>  -10.0867    1.0000 </r>
       <r>  -10.0823    1.0000 </r>
       <r>   -9.9802    1.0000 </r>
       <r>   -9.9762    1.0000 </r>
       <r>   -7.1408    1.0000 </r>
       <r>    1.9576    1.0000 </r>
       <r>    3.5713    1.0000 </r>
       <r>    4.1474    1.0000 </r>
       <r>    5.7809    0.0000 </r>
       <r>    8.1487    0.0000 </r>
       <r>    8.4443    0.0000 </r>
       <r>    9.0547    0.0000 </r>
       <r>   12.4318    0.0000 </r>
       <r>   12.8990    0.0000 </r>
       <r>   13.1679    0.0000 </r>
      </set>
      <set comment="kpoint 26">
       <r>  -10.1240    1.0000 </r>
       <r>  -10.0867    1.0000 </r>
       <r>  -10.0823    1.0000 </r>
       <r>   -9.9802    1.0000 </r>
       <r>   -9.9762    1.0000 </r>
       <r>   -7.1408    1.0000 </r>
       <r>    1.9576    1.0000 </r>
       <r>    3.5713    1.0000 </r>
       <r>    4.1474    1.0000 </r>
       <r>    5.7809    0.0000 </r>
       <r>    8.1487    0.0000 </r>
       <r>    8.4443    0.0000 </r>
       <r>    9.0547    0.0000 </r>
       <r>   12.4318    0.0000 </r>
       <r>   12.8990    0.0000 </r>
       <r>   13.1679    0.0000 </r>
      </set>
      <set comment="kpoint 27">
       <r>  -10.1240    1.0000 </r>
       <r>  -10.0867    1.0000 </r>
       <r>  -10.0823    1.0000 </r>
       <r>   -9.9802    1.0000 </r>
       <r>   -9.9762    1.0000 </r>
       <r>   -7.1408    1.0000 </r>
       <r>    1.9576    1.0000 </r>
       <r>    3.5713    1.0000 </r>
       <r>    4.1474    1.0000 </r>
       <r>    5.7809    0.0000 </r>
       <r>    8.1487    0.0000 </r>
       <r>    8.4443    0.0000 </r>
       <r>    9.0547    0.0000 </r>
       <r>   12.4318    0.0000 </r>
       <r>   12.8990    0.0000 </r>
       <r>   13.1679    0.0000 </r>
      </set>
      <set comment="kpoint 28">
       <r>  -10.1240    1.0000 </r>
       <r>  -10.0867    1.0000 </r>
       <r>  -10.0823    1.0000 </r>
       <r>   -9.9802    1.0000 </r>
       <r>   -9.9762    1.0000 </r>
       <r>   -7.1408    1.0000 </r>
       <r>    1.9576    1.0000 </r>
       <r>    3.5713    1.0000 </r>
       <r>    4.1474    1.0000 </r>
       <r>    5.7809    0.0000 </r>
       <r>    8.1487    0.0000 </r>
       <r>    8.4443    0.0000 </r>
       <r>    9.0547    0.0000 </r>
       <r>   12.4318    0.0000 </r>
       <r>   12.8990    0.0000 </r>
       <r>   13.1679    0.0000 </r>
      </set>
      <set comment="kpoint 29">
       <r>  -10.1240    1.0000 </r>
       <r>  -10.0867    1.0000 </r>
       <r>  -10.0823    1.0000 </r>
       <r>   -9.9802    1.0000 </r>
       <r>   -9.9762    1.0000 </r>
       <r>   -7.1408    1.0000 </r>
       <r>    1.9576    1.0000 </r>
       <r>    3.5713    1.0000 </r>
       <r>    4.1474    1.0000 </r>
       <r>    5.7809    0.0000 </r>
       <r>    8.1487    0.0000 </r>
       <r>    8.4443    0.0000 </r>
       <r>    9.0547    0.0000 </r>
       <r>   12.4318    0.0000 </r>
       <r>   12.8990    0.0000 </r>
       <r>   13.1679    0.0000 </r>
      </set>
      <set comment="kpoint 30">
       <r>  -10.1240    1.0000 </r>
       <r>  -10.0867    1.0000 </r>
       <r>  -10.0823    1.0000 </r>
       <r>   -9.9802    1.0000 </r>
       <r>   -9.9762    1.0000 </r>
       <r>   -7.1408    1.0000 </r>
       <r>    1.9576    1.0000 </r>
       <r>    3.5713    1.0000 </r>
       <r>    4.1474    1.0000 </r>
       <r>    5.7809    0.0000 </r>
       <r>    8.1487    0.0000 </r>
       <r>    8.4443    0.0000 </r>
       <r>    9.0547    0.0000 </r>
       <r>   12.4318    0.0000 </r>
       <r>   12.8990    0.0000 </r>
       <r>   13.1679    0.0000 </r>
      </set>
      <set comment="kpoint 31">
       <r>  -10.1240    1.0000 </r>
       <r>  -10.0867    1.0000 </r>
       <r>  -10.0823    1.0000 </r>
       <r>   -9.9802    1.0000 </r>
       <r>   -9.9762    1.0000 </r>
       <r>   -7.1408    1.0000 </r>
       <r>    1.9576    1.0000 </r>
       <r>    3.5713    1.0000 </r>
       <r>    4.1474    1.0000 </r>
       <r>    5.7809    0.0000 </r>
       <r>    8.1487    0.0000 </r>
       <r>    8.4443    0.0000 </r>
       <r>    9.0547    0.0000 </r>
       <r>   12.4318    0.0000 </r>
       <r>   12.8990    0.0000 </r>
       <r>   13.1679    0.0000 </r>
      </set>
      <set comment="kpoint 32">
       <r>  -10.1240    1.0000 </r>
       <r>  -10.0867    1.0000 </r>
       <r>  -10.0823    1.0000 </r>
       <r>   -9.9802    1.0000 </r>
       <r>   -9.9762    1.0000 </r>
       <r>   -7.1408    1.0000 </r>
       <r>    1.9576    1.0000 </r>
       <r>    3.5713    1.0000 </r>
       <r>    4.1474    1.0000 </r>
       <r>    5.7809    0.0000 </r>
       <r>    8.1487    0.0000 </r>
       <r>    8.4443    0.0000 </r>
       <r>    9.0547    0.0000 </r>
       <r>   12.4318    0.0000 </r>
       <r>   12.8990    0.0000 </r>
       <r>   13.1679    0.0000 </r>
      </set>
      <set comment="kpoint 33">
       <r>  -10.1240    1.0000 </r>
       <r>  -10.0867    1.0000 </r>
       <r>  -10.0823    1.0000 </r>
       <r>   -9.9802    1.0000 </r>
       <r>   -9.9762    1.0000 </r>
       <r>   -7.1408    1.0000 </r>
       <r>    1.9576    1.0000 </r>
       <r>    3.5713    1.0000 </r>
       <r>    4.1474    1.0000 </r>
       <r>    5.7809    0.0000 </r>
       <r>    8.1487    0.0000 </r>
       <r>    8.4443    0.0000 </r>
       <r>    9.0547    0.0000 </r>
       <r>   12.4318    0.0000 </r>
       <r>   12.8990    0.0000 </r>
       <r>   13.1679    0.0000 </r>
      </set>
      <set comment="kpoint 34">
       <r>  -10.1240    1.0000 </r>
       <r>  -10.0867    1.0000 </r>
       <r>  -10.0823    1.0000 </r>
       <r>   -9.9802    1.0000 </r>
       <r>   -9.9762    1.0000 </r>
       <r>   -7.1408    1.0000 </r>
       <r>    1.9576    1.0000 </r>
       <r>    3.5713    1.0000 </r>
       <r>    4.1474    1.0000 </r>
       <r>    5.7809    0.0000 </r>
       <r>    8.1487    0.0000 </r>
       <r>    8.4443    0.0000 </r>
       <r>    9.0547    0.0000 </r>
       <r>   12.4318    0.0000 </r>
       <r>   12.8990    0.0000 </r>
       <r>   13.1679    0.0000 </r>
      </set>
      <set comment="kpoint 35">
       <r>  -10.1240    1.0000 </r>
       <r>  -10.0867    1.0000 </r>
       <r>  -10.0823    1.0000 </r>
       <r>   -9.9802    1.0000 </r>
       <r>   -9.9762    1.0000 </r>
       <r>   -7.1408    1.0000 </r>
       <r>    1.9576    1.0000 </r>
       <r>    3.5713    1.0000 </r>
       <r>    4.1474    1.0000 </r>
       <r>    5.7809    0.0000 </r>
       <r>    8.1487    0.0000 </r>
       <r>    8.4443    0.0000 </r>
       <r>    9.0547    0.0000 </r>
       <r>   12.4318    0.0000 </r>
       <r>   12.8990    0.0000 </r>
       <r>   13.1679    0.0000 </r>
      </set>
      <set comment="kpoint 36">
       <r>  -10.1240    1.0000 </r>
       <r>  -10.0867    1.0000 </r>
       <r>  -10.0823    1.0000 </r>
       <r>   -9.9802    1.0000 </r>
       <r>   -9.9762    1.0000 </r>
       <r>   -7.1408    1.0000 </r>
       <r>    1.9576    1.0000 </r>
       <r>    3.5713    1.0000 </r>
       <r>    4.1474    1.0000 </r>
       <r>    5.7809    0.0000 </r>
       <r>    8.1487    0.0000 </r>
       <r>    8.4443    0.0000 </r>
       <r>    9.0547    0.0000 </r>
       <r>   12.4318    0.0000 </r>
       <r>   12.8990    0.0000 </r>
       <r>   13.1679    0.0000 </r>
      </set>
      <set comment="kpoint 37">
       <r>  -10.1240    1.0000 </r>
       <r>  -10.0867    1.0000 </r>
       <r>  -10.0823    1.0000 </r>
       <r>   -9.9802    1.0000 </r>
       <r>   -9.9762    1.0000 </r>
       <r>   -7.1408    1.0000 </r>
       <r>    1.9576    1.0000 </r>
       <r>    3.5713    1.0000 </r>
       <r>    4.1474    1.0000 </r>
       <r>    5.7809    0.0000 </r>
       <r>    8.1487    0.0000 </r>
       <r>    8.4443    0.0000 </r>
       <r>    9.0547    0.0000 </r>
       <r>   12.4318    0.0000 </r>
       <r>   12.8990    0.0000 </r>
       <r>   13.1679    0.0000 </r>
      </set>
      <set comment="kpoint 38">
       <r>  -10.1240    1.0000 </r>
       <r>  -10.0867    1.0000 </r>
       <r>  -10.0823    1.0000 </r>
       <r>   -9.9802    1.0000 </r>
       <r>   -9.9762    1.0000 </r>
       <r>   -7.1408    1.0000 </r>
       <r>    1.9576    1.0000 </r>
       <r>    3.5713    1.0000 </r>
       <r>    4.1474    1.0000 </r>
       <r>    5.7809    0.0000 </r>
       <r>    8.1487    0.0000 </r>
       <r>    8.4443    0.0000 </r>
       <r>    9.0547    0.0000 </r>
       <r>   12.4318    0.0000 </r>
       <r>   12.8990    0.0000 </r>
       <r>   13.1679    0.0000 </r>
      </set>
      <set comment="kpoint 39">
       <r>  -10.1240    1.0000 </r>
       <r>  -10.0867    1.0000 </r>
       <r>  -10.0823    1.0000 </r>
       <r>   -9.9802    1.0000 </r>
       <r>   -9.9762    1.0000 </r>
       <r>   -7.1408    1.0000 </r>
       <r>    1.9576    1.0000 </r>
       <r>    3.5713    1.0000 </r>
       <r>    4.1474    1.0000 </r>
       <r>    5.7809    0.0000 </r>
       <r>    8.1487    0.0000 </r>
       <r>    8.4443    0.0000 </r>
       <r>    9.0547    0.0000 </r>
       <r>   12.4318    0.0000 </r>
       <r>   12.8990    0.0000 </r>
       <r>   13.1679    0.0000 </r>
      </set>
      <set comment="kpoint 40">
       <r>  -10.1240    1.0000 </r>
       <r>  -10.0867    1.0000 </r>
       <r>  -10.0823    1.0000 </r>
       <r>   -9.9802    1.0000 </r>
       <r>   -9.9762    1.0000 </r>
       <r>   -7.1408    1.0000 </r>
       <r>    1.9576    1.0000 </r>
       <r>    3.5713    1.0000 </r>
       <r>    4.1474    1.0000 </r>
       <r>    5.7809    0.0000 </r>
       <r>    8.1487    0.0000 </r>
       <r>    8.4443    0.0000 </r>
       <r>    9.0547    0.0000 </r>
       <r>   12.4318    0.0000 </r>
       <r>   12.8990    0.0000 </r>
       <r>   13.1679    0.0000 </r>
      </set>
      <set comment="kpoint 41">
       <r>  -10.1240    1.0000 </r>
       <r>  -10.0867    1.0000 </r>
       <r>  -10.0823    1.0000 </r>
       <r>   -9.9802    1.0000 </r>
       <r>   -9.9762    1.0000 </r>
       <r>   -7.1408    1.0000 </r>
       <r>    1.9576    1.0000 </r>
       <r>    3.5713    1.0000 </r>
       <r>    4.1474    1.0000 </r>
       <r>    5.7809    0.0000 </r>
       <r>    8.1487    0.0000 </r>
       <r>    8.4443    0.0000 </r>
       <r>    9.0547    0.0000 </r>
       <r>   12.4318    0.0000 </r>
       <r>   12.8990    0.0000 </r>
       <r>   13.1679    0.0000 </r>
      </set>
      <set comment="kpoint 42">
       <r>  -10.1240    1.0000 </r>
       <r>  -10.0867    1.0000 </r>
       <r>  -10.0823    1.0000 </r>
       <r>   -9.9802    1.0000 </r>
       <r>   -9.9762    1.0000 </r>
       <r>   -7.1408    1.0000 </r>
       <r>    1.9576    1.0000 </r>
       <r>    3.5713    1.0000 </r>
       <r>    4.1474    1.0000 </r>
       <r>    5.7809    0.0000 </r>
       <r>    8.1487    0.0000 </r>
       <r>    8.4443    0.0000 </r>
       <r>    9.0547    0.0000 </r>
       <r>   12.4318    0.0000 </r>
       <r>   12.8990    0.0000 </r>
       <r>   13.1679    0.0000 </r>
      </set>
     </set>
    </set>
   </array>
[...]
       </set>
       <set comment="band 12">
        <r>  0.0000  0.0000  0.0919  0.2757  0.0024  0.0008  0.0032  0.0014  0.0011 </r>
        <r>  0.0000  0.0000  0.0078  0.0233  0.0150  0.0050  0.0205  0.0091  0.0068 </r>
       </set>
       <set comment="band 13">
        <r>  0.0031  0.1071  0.1412  0.0471  0.0002  0.0006  0.0028  0.0075  0.0067 </r>
        <r>  0.0029  0.0677  0.0297  0.0099  0.0011  0.0034  0.0002  0.0236  0.0246 </r>
       </set>
       <set comment="band 14">
        <r>  0.0000  0.0000  0.0004  0.0011  0.0512  0.0171  0.0278  0.0124  0.0093 </r>
        <r>  0.0000  0.0000  0.0000  0.0000  0.0434  0.0145  0.0206  0.0092  0.0069 </r>
       </set>
       <set comment="band 15">
        <r>  0.0375  0.0493  0.0274  0.0091  0.0071  0.0212  0.0116  0.0127  0.0092 </r>
        <r>  0.0070  0.0037  0.0015  0.0005  0.0085  0.0254  0.0027  0.0065  0.0001 </r>
       </set>
       <set comment="band 16">
        <r>  0.1443  0.0331  0.0126  0.0042  0.0034  0.0102  0.0057  0.0088  0.0051 </r>
        <r>  0.0001  0.0043  0.0054  0.0018  0.0056  0.0169  0.0078  0.0036  0.0070 </r>
       </set>
      </set>
      <set comment="kpoint 38">
       <set comment="band 1">
        <r>  0.0006  0.0002  0.0001  0.0000  0.0268  0.0803  0.3406  0.1710  0.3375 </r>
        <r>  0.0092  0.0025  0.0009  0.0003  0.0000  0.0000  0.0001  0.0000  0.0001 </r>
       </set>
       <set comment="band 2">
        <r>  0.0000  0.0000  0.0000  0.0001  0.2437  0.0813  0.3630  0.1615  0.1209 </r>
        <r>  0.0000  0.0000  0.0012  0.0036  0.0001  0.0000  0.0001  0.0001  0.0000 </r>
       </set>
       <set comment="band 3">
        <r>  0.0000  0.0001  0.0001  0.0000  0.0405  0.1212  0.0186  0.3531  0.4376 </r>
        <r>  0.0000  0.0015  0.0022  0.0007  0.0000  0.0001  0.0000  0.0001  0.0002 </r>
       </set>
       <set comment="band 4">
        <r>  0.0000  0.0000  0.0000  0.0000  0.4887  0.1631  0.1846  0.0821  0.0615 </r>
        <r>  0.0000  0.0000  0.0000  0.0000  0.0002  0.0001  0.0001  0.0000  0.0000 </r>
       </set>
       <set comment="band 5">
        <r>  0.0000  0.0000  0.0000  0.0000  0.1770  0.5305  0.0610  0.2032  0.0087 </r>
        <r>  0.0000  0.0000  0.0000  0.0000  0.0000  0.0001  0.0000  0.0001  0.0000 </r>
       </set>
       <set comment="band 6">
        <r>  0.1402  0.0033  0.0013  0.0004  0.0004  0.0013  0.0050  0.0025  0.0050 </r>
        <r>  0.4528  0.0013  0.0005  0.0002  0.0000  0.0000  0.0000  0.0000  0.0000 </r>
       </set>
       <set comment="band 7">
        <r>  0.2204  0.0235  0.0156  0.0052  0.0008  0.0024  0.0108  0.0049  0.0100 </r>
        <r>  0.1438  0.1178  0.0467  0.0156  0.0001  0.0002  0.0009  0.0004  0.0009 </r>
       </set>
       <set comment="band 8">
        <r>  0.0064  0.0599  0.0454  0.0151  0.0015  0.0044  0.0000  0.0150  0.0177 </r>
        <r>  0.0004  0.1275  0.1767  0.0589  0.0001  0.0003  0.0008  0.0013  0.0018 </r>
       </set>
       <set comment="band 9">
        <r>  0.0000  0.0000  0.0221  0.0664  0.0135  0.0045  0.0187  0.0083  0.0062 </r>
        <r>  0.0000  0.0000  0.1082  0.3246  0.0007  0.0002  0.0009  0.0004  0.0003 </r>
       </set>
       <set comment="band 10">
        <r>  0.1838  0.0319  0.0317  0.0106  0.0004  0.0013  0.0039  0.0018  0.0038 </r>
        <r>  0.1378  0.1264  0.0550  0.0183  0.0002  0.0007  0.0000  0.0013  0.0018 </r>
       </set>
       <set comment="band 11">
        <r>  0.0489  0.1430  0.0637  0.0212  0.0011  0.0034  0.0030  0.0050  0.0081 </r>
        <r>  0.0118  0.0301  0.0421  0.0140  0.0014  0.0042  0.0163  0.0072  0.0151 </r>
       </set>
       <set comment="band 12">
        <r>  0.0000  0.0000  0.0919  0.2757  0.0024  0.0008  0.0032  0.0014  0.0011 </r>
        <r>  0.0000  0.0000  0.0078  0.0233  0.0150  0.0050  0.0205  0.0091  0.0068 </r>
       </set>
       <set comment="band 13">
        <r>  0.0031  0.1071  0.1412  0.0471  0.0002  0.0006  0.0028  0.0075  0.0067 </r>
        <r>  0.0029  0.0677  0.0297  0.0099  0.0011  0.0034  0.0002  0.0236  0.0246 </r>
       </set>
       <set comment="band 14">
        <r>  0.0000  0.0000  0.0004  0.0011  0.0512  0.0171  0.0278  0.0124  0.0093 </r>
        <r>  0.0000  0.0000  0.0000  0.0000  0.0434  0.0145  0.0206  0.0092  0.0069 </r>
       </set>
       <set comment="band 15">
        <r>  0.0375  0.0493  0.0274  0.0091  0.0071  0.0212  0.0116  0.0127  0.0092 </r>
        <r>  0.0070  0.0037  0.0015  0.0005  0.0085  0.0254  0.0027  0.0065  0.0001 </r>
       </set>
       <set comment="band 16">
        <r>  0.1443  0.0331  0.0126  0.0042  0.0034  0.0102  0.0057  0.0088  0.0051 </r>
        <r>  0.0001  0.0043  0.0054  0.0018  0.0056  0.0169  0.0078  0.0036  0.0070 </r>
       </set>
      </set>
      <set comment="kpoint 39">
       <set comment="band 1">
        <r>  0.0006  0.0002  0.0001  0.0000  0.0268  0.0803  0.3406  0.1710  0.3375 </r>
        <r>  0.0092  0.0025  0.0009  0.0003  0.0000  0.0000  0.0001  0.0000  0.0001 </r>
       </set>
       <set comment="band 2">
        <r>  0.0000  0.0000  0.0000  0.0001  0.2437  0.0813  0.3630  0.1614  0.1210 </r>
        <r>  0.0000  0.0000  0.0012  0.0036  0.0001  0.0000  0.0001  0.0001  0.0000 </r>
       </set>
       <set comment="band 3">
        <r>  0.0000  0.0001  0.0001  0.0000  0.0404  0.1212  0.0186  0.3532  0.4375 </r>
        <r>  0.0000  0.0015  0.0022  0.0007  0.0000  0.0001  0.0000  0.0001  0.0002 </r>
       </set>
       <set comment="band 4">
        <r>  0.0000  0.0000  0.0000  0.0000  0.4887  0.1631  0.1846  0.0821  0.0615 </r>
        <r>  0.0000  0.0000  0.0000  0.0000  0.0002  0.0001  0.0001  0.0000  0.0000 </r>
       </set>
       <set comment="band 5">
        <r>  0.0000  0.0000  0.0000  0.0000  0.1770  0.5305  0.0610  0.2032  0.0087 </r>
        <r>  0.0000  0.0000  0.0000  0.0000  0.0000  0.0001  0.0000  0.0001  0.0000 </r>
       </set>
       <set comment="band 6">
        <r>  0.1402  0.0033  0.0013  0.0004  0.0004  0.0013  0.0050  0.0025  0.0050 </r>
        <r>  0.4528  0.0013  0.0005  0.0002  0.0000  0.0000  0.0000  0.0000  0.0000 </r>
       </set>
       <set comment="band 7">
        <r>  0.2204  0.0235  0.0156  0.0052  0.0008  0.0024  0.0108  0.0049  0.0100 </r>
        <r>  0.1438  0.1178  0.0467  0.0156  0.0001  0.0002  0.0009  0.0004  0.0009 </r>
       </set>
       <set comment="band 8">
        <r>  0.0064  0.0599  0.0454  0.0151  0.0015  0.0044  0.0000  0.0150  0.0177 </r>
        <r>  0.0004  0.1275  0.1767  0.0589  0.0001  0.0003  0.0008  0.0013  0.0018 </r>
       </set>
       <set comment="band 9">
        <r>  0.0000  0.0000  0.0221  0.0664  0.0135  0.0045  0.0187  0.0083  0.0062 </r>
        <r>  0.0000  0.0000  0.1082  0.3246  0.0007  0.0002  0.0009  0.0004  0.0003 </r>
       </set>
       <set comment="band 10">
        <r>  0.1838  0.0319  0.0317  0.0106  0.0004  0.0013  0.0039  0.0018  0.0038 </r>
        <r>  0.1378  0.1264  0.0550  0.0183  0.0002  0.0007  0.0000  0.0013  0.0018 </r>
       </set>
       <set comment="band 11">
        <r>  0.0489  0.1430  0.0637  0.0212  0.0011  0.0034  0.0030  0.0050  0.0081 </r>
        <r>  0.0118  0.0301  0.0421  0.0140  0.0014  0.0042  0.0163  0.0072  0.0151 </r>
       </set>
       <set comment="band 12">
        <r>  0.0000  0.0000  0.0919  0.2757  0.0024  0.0008  0.0032  0.0014  0.0011 </r>
        <r>  0.0000  0.0000  0.0078  0.0233  0.0150  0.0050  0.0205  0.0091  0.0068 </r>
       </set>
       <set comment="band 13">
        <r>  0.0031  0.1071  0.1412  0.0471  0.0002  0.0006  0.0028  0.0075  0.0067 </r>
        <r>  0.0029  0.0677  0.0297  0.0099  0.0011  0.0034  0.0002  0.0236  0.0246 </r>
       </set>
       <set comment="band 14">
        <r>  0.0000  0.0000  0.0004  0.0011  0.0512  0.0171  0.0278  0.0124  0.0093 </r>
        <r>  0.0000  0.0000  0.0000  0.0000  0.0434  0.0145  0.0206  0.0092  0.0069 </r>
       </set>
       <set comment="band 15">
        <r>  0.0375  0.0493  0.0274  0.0091  0.0071  0.0212  0.0116  0.0127  0.0092 </r>
        <r>  0.0070  0.0037  0.0015  0.0005  0.0085  0.0254  0.0027  0.0065  0.0001 </r>
       </set>
       <set comment="band 16">
        <r>  0.1443  0.0331  0.0126  0.0042  0.0034  0.0102  0.0057  0.0088  0.0051 </r>
        <r>  0.0001  0.0043  0.0054  0.0018  0.0056  0.0169  0.0078  0.0036  0.0070 </r>
       </set>
      </set>
      <set comment="kpoint 40">
       <set comment="band 1">
        <r>  0.0006  0.0002  0.0001  0.0000  0.0268  0.0803  0.3406  0.1710  0.3375 </r>
        <r>  0.0092  0.0025  0.0009  0.0003  0.0000  0.0000  0.0001  0.0000  0.0001 </r>
       </set>
       <set comment="band 2">
        <r>  0.0000  0.0000  0.0000  0.0001  0.2437  0.0813  0.3630  0.1614  0.1210 </r>
        <r>  0.0000  0.0000  0.0012  0.0036  0.0001  0.0000  0.0001  0.0001  0.0000 </r>
       </set>
       <set comment="band 3">
        <r>  0.0000  0.0001  0.0001  0.0000  0.0404  0.1212  0.0186  0.3532  0.4375 </r>
        <r>  0.0000  0.0015  0.0022  0.0007  0.0000  0.0001  0.0000  0.0001  0.0002 </r>
       </set>
       <set comment="band 4">
        <r>  0.0000  0.0000  0.0000  0.0000  0.4887  0.1631  0.1846  0.0821  0.0615 </r>
        <r>  0.0000  0.0000  0.0000  0.0000  0.0002  0.0001  0.0001  0.0000  0.0000 </r>
       </set>
       <set comment="band 5">
        <r>  0.0000  0.0000  0.0000  0.0000  0.1770  0.5305  0.0610  0.2032  0.0087 </r>
        <r>  0.0000  0.0000  0.0000  0.0000  0.0000  0.0001  0.0000  0.0001  0.0000 </r>
       </set>
       <set comment="band 6">
        <r>  0.1402  0.0033  0.0013  0.0004  0.0004  0.0013  0.0050  0.0025  0.0050 </r>
        <r>  0.4528  0.0013  0.0005  0.0002  0.0000  0.0000  0.0000  0.0000  0.0000 </r>
       </set>
       <set comment="band 7">
        <r>  0.2204  0.0235  0.0156  0.0052  0.0008  0.0024  0.0108  0.0049  0.0100 </r>
        <r>  0.1438  0.1178  0.0467  0.0156  0.0001  0.0002  0.0009  0.0004  0.0009 </r>
       </set>
       <set comment="band 8">
        <r>  0.0064  0.0599  0.0454  0.0151  0.0015  0.0044  0.0000  0.0150  0.0177 </r>
        <r>  0.0004  0.1275  0.1767  0.0589  0.0001  0.0003  0.0008  0.0013  0.0018 </r>
       </set>
       <set comment="band 9">
        <r>  0.0000  0.0000  0.0221  0.0664  0.0135  0.0045  0.0187  0.0083  0.0062 </r>
        <r>  0.0000  0.0000  0.1082  0.3246  0.0007  0.0002  0.0009  0.0004  0.0003 </r>
       </set>
       <set comment="band 10">
        <r>  0.1838  0.0319  0.0317  0.0106  0.0004  0.0013  0.0039  0.0018  0.0038 </r>
        <r>  0.1378  0.1264  0.0550  0.0183  0.0002  0.0007  0.0000  0.0013  0.0018 </r>
       </set>
       <set comment="band 11">
        <r>  0.0489  0.1430  0.0637  0.0212  0.0011  0.0034  0.0030  0.0050  0.0081 </r>
        <r>  0.0118  0.0301  0.0421  0.0140  0.0014  0.0042  0.0163  0.0072  0.0151 </r>
       </set>
       <set comment="band 12">
        <r>  0.0000  0.0000  0.0919  0.2757  0.0024  0.0008  0.0032  0.0014  0.0011 </r>
        <r>  0.0000  0.0000  0.0078  0.0233  0.0150  0.0050  0.0205  0.0091  0.0068 </r>
       </set>
       <set comment="band 13">
        <r>  0.0031  0.1071  0.1412  0.0471  0.0002  0.0006  0.0028  0.0075  0.0067 </r>
        <r>  0.0029  0.0677  0.0297  0.0099  0.0011  0.0034  0.0002  0.0236  0.0246 </r>
       </set>
       <set comment="band 14">
        <r>  0.0000  0.0000  0.0004  0.0011  0.0512  0.0171  0.0278  0.0124  0.0093 </r>
        <r>  0.0000  0.0000  0.0000  0.0000  0.0434  0.0145  0.0206  0.0092  0.0069 </r>
       </set>
       <set comment="band 15">
        <r>  0.0375  0.0493  0.0274  0.0091  0.0071  0.0212  0.0116  0.0127  0.0092 </r>
        <r>  0.0070  0.0037  0.0015  0.0005  0.0085  0.0254  0.0027  0.0065  0.0001 </r>
       </set>
       <set comment="band 16">
        <r>  0.1443  0.0331  0.0126  0.0042  0.0034  0.0102  0.0057  0.0088  0.0051 </r>
        <r>  0.0001  0.0043  0.0054  0.0018  0.0056  0.0169  0.0078  0.0036  0.0070 </r>
       </set>
      </set>
      <set comment="kpoint 41">
       <set comment="band 1">
        <r>  0.0006  0.0000  0.0001  0.0002  0.2310  0.0877  0.3406  0.1636  0.1332 </r>
        <r>  0.0092  0.0000  0.0009  0.0028  0.0001  0.0000  0.0001  0.0001  0.0000 </r>
       </set>
       <set comment="band 2">
        <r>  0.0000  0.0001  0.0000  0.0000  0.0291  0.0812  0.3631  0.1613  0.3357 </r>
        <r>  0.0000  0.0032  0.0012  0.0004  0.0000  0.0000  0.0001  0.0001  0.0001 </r>
       </set>
       <set comment="band 3">
        <r>  0.0000  0.0000  0.0001  0.0000  0.0766  0.1974  0.0186  0.2771  0.4012 </r>
        <r>  0.0000  0.0015  0.0022  0.0008  0.0000  0.0000  0.0000  0.0002  0.0002 </r>
       </set>
       <set comment="band 4">
        <r>  0.0000  0.0000  0.0000  0.0000  0.4877  0.1630  0.1846  0.0821  0.0626 </r>
        <r>  0.0000  0.0000  0.0000  0.0000  0.0002  0.0001  0.0001  0.0000  0.0000 </r>
       </set>
       <set comment="band 5">
        <r>  0.0000  0.0000  0.0000  0.0000  0.1488  0.4458  0.0610  0.2878  0.0369 </r>
        <r>  0.0000  0.0000  0.0000  0.0000  0.0001  0.0002  0.0000  0.0001  0.0000 </r>
       </set>
       <set comment="band 6">
        <r>  0.1402  0.0000  0.0013  0.0036  0.0034  0.0012  0.0050  0.0026  0.0021 </r>
        <r>  0.4528  0.0000  0.0005  0.0015  0.0000  0.0000  0.0000  0.0000  0.0000 </r>
       </set>
       <set comment="band 7">
        <r>  0.2204  0.0060  0.0156  0.0226  0.0072  0.0026  0.0108  0.0048  0.0036 </r>
        <r>  0.1438  0.0022  0.0467  0.1311  0.0006  0.0002  0.0009  0.0004  0.0003 </r>
       </set>
       <set comment="band 8">
        <r>  0.0064  0.0204  0.0454  0.0546  0.0029  0.0088  0.0000  0.0107  0.0163 </r>
        <r>  0.0004  0.1146  0.1767  0.0719  0.0007  0.0008  0.0008  0.0009  0.0011 </r>
       </set>
       <set comment="band 9">
        <r>  0.0000  0.0590  0.0221  0.0074  0.0027  0.0045  0.0187  0.0083  0.0170 </r>
        <r>  0.0000  0.2885  0.1082  0.0361  0.0002  0.0002  0.0009  0.0004  0.0008 </r>
       </set>
       <set comment="band 10">
        <r>  0.1838  0.0176  0.0317  0.0250  0.0026  0.0009  0.0039  0.0022  0.0016 </r>
        <r>  0.1378  0.0068  0.0550  0.1379  0.0002  0.0006  0.0000  0.0014  0.0018 </r>
       </set>
       <set comment="band 11">
        <r>  0.0489  0.0090  0.0637  0.1553  0.0025  0.0022  0.0030  0.0061  0.0068 </r>
        <r>  0.0118  0.0274  0.0421  0.0168  0.0109  0.0038  0.0163  0.0077  0.0056 </r>
       </set>
       <set comment="band 12">
        <r>  0.0000  0.2451  0.0919  0.0306  0.0006  0.0008  0.0032  0.0014  0.0029 </r>
        <r>  0.0000  0.0207  0.0078  0.0026  0.0032  0.0050  0.0205  0.0091  0.0186 </r>
       </set>
       <set comment="band 13">
        <r>  0.0031  0.0898  0.1412  0.0644  0.0037  0.0066  0.0028  0.0015  0.0032 </r>
        <r>  0.0029  0.0038  0.0297  0.0738  0.0053  0.0157  0.0002  0.0113  0.0205 </r>
       </set>
       <set comment="band 14">
        <r>  0.0000  0.0009  0.0004  0.0001  0.0443  0.0171  0.0278  0.0124  0.0161 </r>
        <r>  0.0000  0.0000  0.0000  0.0000  0.0400  0.0145  0.0206  0.0092  0.0103 </r>
       </set>
       <set comment="band 15">
        <r>  0.0375  0.0079  0.0274  0.0505  0.0122  0.0199  0.0116  0.0141  0.0041 </r>
        <r>  0.0070  0.0001  0.0015  0.0040  0.0056  0.0166  0.0027  0.0152  0.0030 </r>
       </set>
       <set comment="band 16">
        <r>  0.1443  0.0002  0.0126  0.0371  0.0070  0.0131  0.0057  0.0059  0.0016 </r>
        <r>  0.0001  0.0033  0.0054  0.0028  0.0059  0.0058  0.0078  0.0148  0.0068 </r>
       </set>
      </set>
      <set comment="kpoint 42">
       <set comment="band 1">
        <r>  0.0006  0.0000  0.0001  0.0002  0.2310  0.0877  0.3406  0.1636  0.1332 </r>
        <r>  0.0092  0.0000  0.0009  0.0028  0.0001  0.0000  0.0001  0.0001  0.0000 </r>
       </set>
       <set comment="band 2">
        <r>  0.0000  0.0001  0.0000  0.0000  0.0291  0.0812  0.3631  0.1613  0.3357 </r>
        <r>  0.0000  0.0032  0.0012  0.0004  0.0000  0.0000  0.0001  0.0001  0.0001 </r>
       </set>
       <set comment="band 3">
        <r>  0.0000  0.0000  0.0001  0.0000  0.0766  0.1974  0.0186  0.2771  0.4012 </r>
        <r>  0.0000  0.0015  0.0022  0.0008  0.0000  0.0000  0.0000  0.0002  0.0002 </r>
       </set>
       <set comment="band 4">
        <r>  0.0000  0.0000  0.0000  0.0000  0.4877  0.1630  0.1846  0.0821  0.0626 </r>
        <r>  0.0000  0.0000  0.0000  0.0000  0.0002  0.0001  0.0001  0.0000  0.0000 </r>
       </set>
       <set comment="band 5">
        <r>  0.0000  0.0000  0.0000  0.0000  0.1488  0.4458  0.0610  0.2878  0.0369 </r>
        <r>  0.0000  0.0000  0.0000  0.0000  0.0001  0.0002  0.0000  0.0001  0.0000 </r>
       </set>
       <set comment="band 6">
        <r>  0.1402  0.0000  0.0013  0.0036  0.0034  0.0012  0.0050  0.0026  0.0021 </r>
        <r>  0.4528  0.0000  0.0005  0.0015  0.0000  0.0000  0.0000  0.0000  0.0000 </r>
       </set>
       <set comment="band 7">
        <r>  0.2204  0.0060  0.0156  0.0226  0.0072  0.0026  0.0108  0.0048  0.0036 </r>
        <r>  0.1438  0.0022  0.0467  0.1311  0.0006  0.0002  0.0009  0.0004  0.0003 </r>
       </set>
       <set comment="band 8">
        <r>  0.0064  0.0204  0.0454  0.0546  0.0029  0.0088  0.0000  0.0107  0.0163 </r>
        <r>  0.0004  0.1146  0.1767  0.0719  0.0007  0.0008  0.0008  0.0009  0.0011 </r>
       </set>
       <set comment="band 9">
        <r>  0.0000  0.0590  0.0221  0.0074  0.0027  0.0045  0.0187  0.0083  0.0170 </r>
        <r>  0.0000  0.2885  0.1082  0.0361  0.0002  0.0002  0.0009  0.0004  0.0008 </r>
       </set>
       <set comment="band 10">
        <r>  0.1838  0.0176  0.0317  0.0250  0.0026  0.0009  0.0039  0.0022  0.0016 </r>
        <r>  0.1378  0.0068  0.0550  0.1379  0.0002  0.0006  0.0000  0.0014  0.0018 </r>
       </set>
       <set comment="band 11">
        <r>  0.0489  0.0090  0.0637  0.1553  0.0025  0.0022  0.0030  0.0061  0.0068 </r>
        <r>  0.0118  0.0274  0.0421  0.0168  0.0109  0.0038  0.0163  0.0077  0.0056 </r>
       </set>
       <set comment="band 12">
        <r>  0.0000  0.2451  0.0919  0.0306  0.0006  0.0008  0.0032  0.0014  0.0029 </r>
        <r>  0.0000  0.0207  0.0078  0.0026  0.0032  0.0050  0.0205  0.0091  0.0186 </r>
       </set>
       <set comment="band 13">
        <r>  0.0031  0.0898  0.1412  0.0644  0.0037  0.0066  0.0028  0.0015  0.0032 </r>
        <r>  0.0029  0.0038  0.0297  0.0738  0.0053  0.0157  0.0002  0.0113  0.0205 </r>
       </set>
       <set comment="band 14">
        <r>  0.0000  0.0009  0.0004  0.0001  0.0443  0.0171  0.0278  0.0124  0.0161 </r>
        <r>  0.0000  0.0000  0.0000  0.0000  0.0400  0.0145  0.0206  0.0092  0.0103 </r>
       </set>
       <set comment="band 15">
        <r>  0.0375  0.0079  0.0274  0.0505  0.0122  0.0199  0.0116  0.0141  0.0041 </r>
        <r>  0.0070  0.0001  0.0015  0.0040  0.0056  0.0166  0.0027  0.0152  0.0030 </r>
       </set>
       <set comment="band 16">
        <r>  0.1443  0.0002  0.0126  0.0371  0.0070  0.0131  0.0057  0.0059  0.0016 </r>
        <r>  0.0001  0.0033  0.0054  0.0028  0.0059  0.0058  0.0078  0.0148  0.0068 </r>
       </set>
      </set>
     </set>
    </set>
   </array>
  </projected>
 </calculation>
 <structure name="finalpos" >
  <crystal>
   <varray name="basis" >
    <v>       3.73111929      -0.00000000       2.15416231 </v>
    <v>       1.24370677       3.51773231       2.15416231 </v>
    <v>      -0.00000000      -0.00000000       4.30832462 </v>
   </varray>
   <i name="volume">     56.54710041 </i>
   <varray name="rec_basis" >
    <v>       0.26801609      -0.09475804       0.00000000 </v>
    <v>       0.00000000       0.28427405       0.00000000 </v>
    <v>      -0.13400804      -0.09475800       0.23210879 </v>
   </varray>
  </crystal>
  <varray name="positions" >
   <v>       0.25000000       0.25000000       0.25000000 </v>
   <v>       0.00000000       0.00000000       0.00000000 </v>
  </varray>
 </structure>
</modeling>
