 running    4 mpi-ranks, with    1 threads/rank, on    1 nodes
 distrk:  each k-point on    4 cores,    1 groups
 distr:  one band on    1 cores,    4 groups
 OpenACC runtime initialized ...    4 GPUs detected
 vasp.6.4.2 20Jul23 (build Jun  5 2025 09:16:51) complex                         
 POSCAR found type information on POSCAR InAs
 POSCAR found :  2 types and       2 ions
 Reading from existing POTCAR
 scaLAPACK will be used selectively (only on CPU)
 Reading from existing POTCAR
 LDA part: xc-table for Pade appr. of Perdew
 WARNING: stress and forces are not correct
 POSCAR, INCAR and KPOINTS ok, starting setup
 FFT: planning ... GRIDC
 FFT: planning ... GRID_SOFT
 FFT: planning ... GRID
 WAVECAR not read
 augmentation electrons    18.14117721380196     
 soft         electrons    0.000000000000000     
 total        electrons    18.14117721380196     
 augmentation electrons   1.1147177907741617E-002
 soft         electrons    0.000000000000000     
 total        electrons   1.1147177907741617E-002
 augmentation electrons    354.4124009509965     
 soft         electrons    0.000000000000000     
 total        electrons    354.4124009509965     
 augmentation electrons    351.2678586509965     
 soft         electrons    0.000000000000000     
 total        electrons    351.2678586509965     
 charge-density read from file: unknown                                 
 magnetization density read from file 1
 entering main loop
       N       E                     dE             d eps       ncg     rms          rms(c)
DAV:   1     0.123518351588E+03    0.12352E+03   -0.86011E+03  2696   0.121E+03
DAV:   2     0.101258716332E+02   -0.11339E+03   -0.10829E+03  2752   0.277E+02
DAV:   3     0.203577988795E+01   -0.80901E+01   -0.79513E+01  3672   0.737E+01
DAV:   4     0.185292106536E+01   -0.18286E+00   -0.18209E+00  2904   0.131E+01
DAV:   5     0.184506071764E+01   -0.78603E-02   -0.78602E-02  3936   0.246E+00
DAV:   6     0.184470834856E+01   -0.35237E-03   -0.35237E-03  3376   0.398E-01
DAV:   7     0.184470455809E+01   -0.37905E-05   -0.37906E-05  4120   0.454E-02
DAV:   8     0.184470449736E+01   -0.60729E-07   -0.60869E-07  2248   0.561E-03
   1 F= 0.18447045E+01 E0= 0.18465456E+01  d E =-.368230E-02  mag=    -0.0000
 writing wavefunctions
 augmentation electrons    6.322430532926731     
 soft         electrons    11.78261429247041     
 total        electrons    18.10504482539714     
 augmentation electrons   1.6839249296686188E-006
 soft         electrons    11.78261429247041     
 total        electrons  -9.6171067931970539E-006
 PROFILE, used timers:     238
