    2    2    1    2
  0.2827355E+02  0.4308325E-09  0.4308325E-09  0.4308325E-09  0.5000000E-15
   1.0000000000000000E-004
  CAR 
 unknown system                          
     18   1000     16
 
  0.1262379E-14  0.1262379E-14  0.1262379E-14  0.1000000E-02
      1        -10.094154      -10.094238   1.000000   1.000000
      2        -10.094153      -10.094237   1.000000   1.000000
      3        -10.094153      -10.094237   1.000000   1.000000
      4         -9.978010       -9.978095   1.000000   1.000000
      5         -9.978010       -9.978095   1.000000   1.000000
      6         -7.401082       -7.401085   1.000000   1.000000
      7          4.023913        4.023888   1.000000   1.000000
      8          4.292563        4.292559   0.666902   0.666938
      9          4.292563        4.292560   0.666894   0.666931
     10          4.292563        4.292560   0.666894   0.666930
     11          8.191368        8.191378   0.000000   0.000000
     12          8.191370        8.191379   0.000000   0.000000
     13          8.191371        8.191380   0.000000   0.000000
     14         11.743657       11.743561   0.000000   0.000000
     15         13.904046       13.904074   0.000000   0.000000
     16         13.904049       13.904076   0.000000   0.000000
 
  0.1000000E+00  0.1262138E-14  0.1262379E-14  0.1000000E-02
      1        -10.105617      -10.105701   1.000000   1.000000
      2        -10.090640      -10.090724   1.000000   1.000000
      3        -10.090639      -10.090723   1.000000   1.000000
      4         -9.978119       -9.978204   1.000000   1.000000
      5         -9.978119       -9.978204   1.000000   1.000000
      6         -7.301518       -7.301521   1.000000   1.000000
      7          2.774473        2.774461   1.000000   1.000000
      8          4.169253        4.169250   0.999956   0.999956
      9          4.169253        4.169250   0.999956   0.999956
     10          5.193305        5.193291   0.000000   0.000000
     11          8.248733        8.248729   0.000000   0.000000
     12          8.374735        8.374744   0.000000   0.000000
     13          8.374735        8.374744   0.000000   0.000000
     14         12.323637       12.323552   0.000000   0.000000
     15         13.221805       13.221817   0.000000   0.000000
     16         13.221807       13.221819   0.000000   0.000000
 
  0.2000000E+00  0.1257760E-14  0.1262379E-14  0.1000000E-02
      1        -10.134409      -10.134491   1.000000   1.000000
      2        -10.082043      -10.082126   1.000000   1.000000
      3        -10.082042      -10.082126   1.000000   1.000000
      4         -9.977726       -9.977811   1.000000   1.000000
      5         -9.977726       -9.977811   1.000000   1.000000
      6         -7.018806       -7.018811   1.000000   1.000000
      7          1.335914        1.335904   1.000000   1.000000
      8          3.891060        3.891058   1.000000   1.000000
      9          3.891060        3.891059   1.000000   1.000000
     10          5.533858        5.533842   0.000000   0.000000
     11          8.744990        8.744998   0.000000   0.000000
     12          8.744990        8.744998   0.000000   0.000000
     13          8.856098        8.856076   0.000000   0.000000
     14         12.773230       12.773238   0.000000   0.000000
     15         12.773230       12.773238   0.000000   0.000000
     16         12.807543       12.807482   0.000000   0.000000
 
  0.3000000E+00  0.1280154E-14  0.1262379E-14  0.1000000E-02
      1        -10.167956      -10.168037   1.000000   1.000000
      2        -10.072911      -10.072995   1.000000   1.000000
      3        -10.072910      -10.072994   1.000000   1.000000
      4         -9.975561       -9.975646   1.000000   1.000000
      5         -9.975561       -9.975646   1.000000   1.000000
      6         -6.607590       -6.607595   1.000000   1.000000
      7          0.022956        0.022947   1.000000   1.000000
      8          3.606582        3.606581   1.000000   1.000000
      9          3.606583        3.606582   1.000000   1.000000
     10          5.430538        5.430519   0.000000   0.000000
     11          8.967682        8.967690   0.000000   0.000000
     12          8.967683        8.967690   0.000000   0.000000
     13          9.985847        9.985818   0.000000   0.000000
     14         12.458565       12.458506   0.000000   0.000000
     15         13.053952       13.053958   0.000000   0.000000
     16         13.053953       13.053958   0.000000   0.000000
 
  0.4000000E+00  0.1255795E-14  0.1262379E-14  0.1000000E-02
      1        -10.193699      -10.193779   1.000000   1.000000
      2        -10.067014      -10.067099   1.000000   1.000000
      3        -10.067014      -10.067098   1.000000   1.000000
      4         -9.972252       -9.972337   1.000000   1.000000
      5         -9.972251       -9.972336   1.000000   1.000000
      6         -6.192273       -6.192279   1.000000   1.000000
      7         -0.959960       -0.959968   1.000000   1.000000
      8          3.408196        3.408196   1.000000   1.000000
      9          3.408197        3.408197   1.000000   1.000000
     10          5.282463        5.282442   0.000000   0.000000
     11          8.978784        8.978791   0.000000   0.000000
     12          8.978785        8.978791   0.000000   0.000000
     13         10.920864       10.920830   0.000000   0.000000
     14         12.620580       12.620520   0.000000   0.000000
     15         14.020387       14.020390   0.000000   0.000000
     16         14.020389       14.020391   0.000000   0.000000
 
  0.5000000E+00  0.1269723E-14  0.1262379E-14  0.1000000E-02
      1        -10.203269      -10.203348   1.000000   1.000000
      2        -10.065156      -10.065241   1.000000   1.000000
      3        -10.065156      -10.065240   1.000000   1.000000
      4         -9.970579       -9.970664   1.000000   1.000000
      5         -9.970578       -9.970663   1.000000   1.000000
      6         -6.001151       -6.001158   1.000000   1.000000
      7         -1.344352       -1.344359   1.000000   1.000000
      8          3.338100        3.338101   1.000000   1.000000
      9          3.338101        3.338102   1.000000   1.000000
     10          5.224591        5.224569   0.000000   0.000000
     11          8.954645        8.954651   0.000000   0.000000
     12          8.954645        8.954652   0.000000   0.000000
     13         11.117389       11.117349   0.000000   0.000000
     14         13.224603       13.224541   0.000000   0.000000
     15         14.957601       14.957597   0.000000   0.000000
     16         14.957603       14.957599   0.000000   0.000000
 
 -0.4000000E+00  0.1277238E-14  0.1262379E-14  0.1000000E-02
      1        -10.193699      -10.193779   1.000000   1.000000
      2        -10.067014      -10.067099   1.000000   1.000000
      3        -10.067014      -10.067098   1.000000   1.000000
      4         -9.972252       -9.972337   1.000000   1.000000
      5         -9.972251       -9.972336   1.000000   1.000000
      6         -6.192273       -6.192279   1.000000   1.000000
      7         -0.959960       -0.959968   1.000000   1.000000
      8          3.408196        3.408196   1.000000   1.000000
      9          3.408197        3.408197   1.000000   1.000000
     10          5.282463        5.282442   0.000000   0.000000
     11          8.978784        8.978791   0.000000   0.000000
     12          8.978785        8.978791   0.000000   0.000000
     13         10.920864       10.920830   0.000000   0.000000
     14         12.620580       12.620520   0.000000   0.000000
     15         14.020387       14.020390   0.000000   0.000000
     16         14.020389       14.020391   0.000000   0.000000
 
 -0.3000000E+00  0.1291167E-14  0.1262379E-14  0.1000000E-02
      1        -10.167956      -10.168037   1.000000   1.000000
      2        -10.072911      -10.072995   1.000000   1.000000
      3        -10.072910      -10.072994   1.000000   1.000000
      4         -9.975561       -9.975646   1.000000   1.000000
      5         -9.975561       -9.975646   1.000000   1.000000
      6         -6.607590       -6.607595   1.000000   1.000000
      7          0.022956        0.022947   1.000000   1.000000
      8          3.606582        3.606581   1.000000   1.000000
      9          3.606583        3.606582   1.000000   1.000000
     10          5.430538        5.430519   0.000000   0.000000
     11          8.967682        8.967690   0.000000   0.000000
     12          8.967683        8.967690   0.000000   0.000000
     13          9.985847        9.985818   0.000000   0.000000
     14         12.458565       12.458506   0.000000   0.000000
     15         13.053952       13.053958   0.000000   0.000000
     16         13.053953       13.053958   0.000000   0.000000
 
 -0.2000000E+00  0.1275274E-14  0.1262379E-14  0.1000000E-02
      1        -10.134409      -10.134491   1.000000   1.000000
      2        -10.082043      -10.082126   1.000000   1.000000
      3        -10.082042      -10.082126   1.000000   1.000000
      4         -9.977726       -9.977811   1.000000   1.000000
      5         -9.977726       -9.977811   1.000000   1.000000
      6         -7.018806       -7.018811   1.000000   1.000000
      7          1.335914        1.335904   1.000000   1.000000
      8          3.891060        3.891058   1.000000   1.000000
      9          3.891060        3.891059   1.000000   1.000000
     10          5.533858        5.533842   0.000000   0.000000
     11          8.744990        8.744998   0.000000   0.000000
     12          8.744990        8.744998   0.000000   0.000000
     13          8.856098        8.856076   0.000000   0.000000
     14         12.773230       12.773238   0.000000   0.000000
     15         12.773230       12.773238   0.000000   0.000000
     16         12.807543       12.807482   0.000000   0.000000
 
 -0.1000000E+00  0.1265629E-14  0.1262379E-14  0.1000000E-02
      1        -10.105617      -10.105701   1.000000   1.000000
      2        -10.090640      -10.090724   1.000000   1.000000
      3        -10.090639      -10.090723   1.000000   1.000000
      4         -9.978119       -9.978204   1.000000   1.000000
      5         -9.978119       -9.978204   1.000000   1.000000
      6         -7.301518       -7.301521   1.000000   1.000000
      7          2.774473        2.774461   1.000000   1.000000
      8          4.169253        4.169250   0.999956   0.999956
      9          4.169253        4.169250   0.999956   0.999956
     10          5.193305        5.193291   0.000000   0.000000
     11          8.248733        8.248729   0.000000   0.000000
     12          8.374735        8.374744   0.000000   0.000000
     13          8.374735        8.374744   0.000000   0.000000
     14         12.323637       12.323552   0.000000   0.000000
     15         13.221805       13.221817   0.000000   0.000000
     16         13.221807       13.221819   0.000000   0.000000
 
  0.1262379E-14  0.1000000E+00  0.1262379E-14  0.1000000E-02
      1        -10.105618      -10.105701   1.000000   1.000000
      2        -10.090640      -10.090724   1.000000   1.000000
      3        -10.090639      -10.090723   1.000000   1.000000
      4         -9.978119       -9.978204   1.000000   1.000000
      5         -9.978119       -9.978204   1.000000   1.000000
      6         -7.301518       -7.301521   1.000000   1.000000
      7          2.774474        2.774461   1.000000   1.000000
      8          4.169252        4.169249   0.999956   0.999956
      9          4.169253        4.169250   0.999956   0.999956
     10          5.193305        5.193291   0.000000   0.000000
     11          8.248735        8.248730   0.000000   0.000000
     12          8.374734        8.374743   0.000000   0.000000
     13          8.374735        8.374744   0.000000   0.000000
     14         12.323637       12.323553   0.000000   0.000000
     15         13.221805       13.221816   0.000000   0.000000
     16         13.221807       13.221819   0.000000   0.000000
 
  0.1000000E+00  0.1000000E+00  0.1262379E-14  0.1000000E-02
      1        -10.113172      -10.113255   1.000000   1.000000
      2        -10.087311      -10.087395   1.000000   1.000000
      3        -10.087310      -10.087394   1.000000   1.000000
      4         -9.980628       -9.980713   1.000000   1.000000
      5         -9.976018       -9.976104   1.000000   1.000000
      6         -7.268494       -7.268497   1.000000   1.000000
      7          2.689409        2.689395   1.000000   1.000000
      8          3.944335        3.944333   1.000000   1.000000
      9          3.944335        3.944333   1.000000   1.000000
     10          5.619049        5.619034   0.000000   0.000000
     11          7.723084        7.723081   0.000000   0.000000
     12          8.686433        8.686440   0.000000   0.000000
     13          8.686433        8.686440   0.000000   0.000000
     14         12.270721       12.270696   0.000000   0.000000
     15         12.615735       12.615675   0.000000   0.000000
     16         14.011495       14.011522   0.000000   0.000000
 
  0.2000000E+00  0.1000000E+00  0.1262379E-14  0.1000000E-02
      1        -10.136812      -10.136894   1.000000   1.000000
      2        -10.080148      -10.080232   1.000000   1.000000
      3        -10.078546      -10.078630   1.000000   1.000000
      4         -9.982856       -9.982941   1.000000   1.000000
      5         -9.974103       -9.974188   1.000000   1.000000
      6         -7.046847       -7.046851   1.000000   1.000000
      7          1.628821        1.628810   1.000000   1.000000
      8          3.618621        3.618620   1.000000   1.000000
      9          3.659799        3.659797   1.000000   1.000000
     10          6.137436        6.137421   0.000000   0.000000
     11          7.668365        7.668357   0.000000   0.000000
     12          9.167985        9.167990   0.000000   0.000000
     13          9.182851        9.182850   0.000000   0.000000
     14         11.781290       11.781281   0.000000   0.000000
     15         13.420530       13.420464   0.000000   0.000000
     16         13.665062       13.665077   0.000000   0.000000
 
  0.3000000E+00  0.1000000E+00  0.1262379E-14  0.1000000E-02
      1        -10.166624      -10.166705   1.000000   1.000000
      2        -10.072388      -10.072472   1.000000   1.000000
      3        -10.068904      -10.068988   1.000000   1.000000
      4         -9.982887       -9.982972   1.000000   1.000000
      5         -9.971811       -9.971897   1.000000   1.000000
      6         -6.675879       -6.675884   1.000000   1.000000
      7          0.383412        0.383403   1.000000   1.000000
      8          3.293390        3.293387   1.000000   1.000000
      9          3.337510        3.337511   1.000000   1.000000
     10          6.160858        6.160842   0.000000   0.000000
     11          8.203530        8.203526   0.000000   0.000000
     12          9.470142        9.470146   0.000000   0.000000
     13          9.632290        9.632273   0.000000   0.000000
     14         12.082490       12.082477   0.000000   0.000000
     15         13.417120       13.417079   0.000000   0.000000
     16         13.722145       13.722155   0.000000   0.000000
 
  0.4000000E+00  0.1000000E+00  0.1262379E-14  0.1000000E-02
      1        -10.192549      -10.192629   1.000000   1.000000
      2        -10.066279      -10.066363   1.000000   1.000000
      3        -10.062443      -10.062527   1.000000   1.000000
      4         -9.979619       -9.979704   1.000000   1.000000
      5         -9.969654       -9.969739   1.000000   1.000000
      6         -6.250425       -6.250432   1.000000   1.000000
      7         -0.674586       -0.674594   1.000000   1.000000
      8          2.945502        2.945499   1.000000   1.000000
      9          3.179391        3.179392   1.000000   1.000000
     10          6.014639        6.014621   0.000000   0.000000
     11          8.556110        8.556110   0.000000   0.000000
     12          9.451887        9.451892   0.000000   0.000000
     13         10.388316       10.388290   0.000000   0.000000
     14         12.696405       12.696367   0.000000   0.000000
     15         13.634373       13.634354   0.000000   0.000000
     16         14.488786       14.488791   0.000000   0.000000
 
  0.5000000E+00  0.1000000E+00  0.1262379E-14  0.1000000E-02
      1        -10.205953      -10.206032   1.000000   1.000000
      2        -10.063314      -10.063398   1.000000   1.000000
      3        -10.060355      -10.060439   1.000000   1.000000
      4         -9.974964       -9.975050   1.000000   1.000000
      5         -9.969860       -9.969946   1.000000   1.000000
      6         -5.963312       -5.963319   1.000000   1.000000
      7         -1.262050       -1.262058   1.000000   1.000000
      8          2.710487        2.710484   1.000000   1.000000
      9          3.174160        3.174161   1.000000   1.000000
     10          5.918195        5.918176   0.000000   0.000000
     11          8.646668        8.646665   0.000000   0.000000
     12          9.300531        9.300537   0.000000   0.000000
     13         11.214063       11.214035   0.000000   0.000000
     14         13.064489       13.064442   0.000000   0.000000
     15         14.391711       14.391689   0.000000   0.000000
     16         14.993344       14.993341   0.000000   0.000000
 
 -0.4000000E+00  0.1000000E+00  0.1262379E-14  0.1000000E-02
      1        -10.202461      -10.202541   1.000000   1.000000
      2        -10.063277      -10.063361   1.000000   1.000000
      3        -10.062243      -10.062327   1.000000   1.000000
      4         -9.973510       -9.973595   1.000000   1.000000
      5         -9.972270       -9.972355   1.000000   1.000000
      6         -6.028723       -6.028730   1.000000   1.000000
      7         -1.134181       -1.134188   1.000000   1.000000
      8          2.633263        2.633261   1.000000   1.000000
      9          3.319675        3.319676   1.000000   1.000000
     10          5.923529        5.923511   0.000000   0.000000
     11          8.776114        8.776109   0.000000   0.000000
     12          9.168003        9.168010   0.000000   0.000000
     13         11.114986       11.114958   0.000000   0.000000
     14         13.100779       13.100725   0.000000   0.000000
     15         13.736534       13.736536   0.000000   0.000000
     16         14.826408       14.826390   0.000000   0.000000
 
 -0.3000000E+00  0.1000000E+00  0.1262379E-14  0.1000000E-02
      1        -10.183013      -10.183093   1.000000   1.000000
      2        -10.068264      -10.068348   1.000000   1.000000
      3        -10.066346      -10.066430   1.000000   1.000000
      4         -9.978329       -9.978414   1.000000   1.000000
      5         -9.972631       -9.972716   1.000000   1.000000
      6         -6.390326       -6.390332   1.000000   1.000000
      7         -0.356010       -0.356018   1.000000   1.000000
      8          2.738042        2.738040   1.000000   1.000000
      9          3.585076        3.585075   1.000000   1.000000
     10          6.016594        6.016578   0.000000   0.000000
     11          8.927485        8.927481   0.000000   0.000000
     12          9.035319        9.035327   0.000000   0.000000
     13         10.140206       10.140179   0.000000   0.000000
     14         12.622234       12.622236   0.000000   0.000000
     15         12.994317       12.994268   0.000000   0.000000
     16         14.458704       14.458705   0.000000   0.000000
 
 -0.2000000E+00  0.1000000E+00  0.1262379E-14  0.1000000E-02
      1        -10.153602      -10.153684   1.000000   1.000000
      2        -10.077685      -10.077769   1.000000   1.000000
      3        -10.073044      -10.073128   1.000000   1.000000
      4         -9.980814       -9.980899   1.000000   1.000000
      5         -9.974458       -9.974543   1.000000   1.000000
      6         -6.813122       -6.813127   1.000000   1.000000
      7          0.779576        0.779566   1.000000   1.000000
      8          3.042821        3.042820   1.000000   1.000000
      9          3.902128        3.902127   1.000000   1.000000
     10          6.082024        6.082010   0.000000   0.000000
     11          8.601738        8.601722   0.000000   0.000000
     12          8.772083        8.772092   0.000000   0.000000
     13          9.465544        9.465534   0.000000   0.000000
     14         12.160353       12.160358   0.000000   0.000000
     15         12.945104       12.945073   0.000000   0.000000
     16         13.846176       13.846151   0.000000   0.000000
 
 -0.1000000E+00  0.1000000E+00  0.1262379E-14  0.1000000E-02
      1        -10.124005      -10.124088   1.000000   1.000000
      2        -10.086730      -10.086814   1.000000   1.000000
      3        -10.082347      -10.082430   1.000000   1.000000
      4         -9.980231       -9.980316   1.000000   1.000000
      5         -9.976228       -9.976313   1.000000   1.000000
      6         -7.140821       -7.140825   1.000000   1.000000
      7          1.957586        1.957574   1.000000   1.000000
      8          3.571236        3.571235   1.000000   1.000000
      9          4.147337        4.147334   0.999997   0.999997
     10          5.780908        5.780895   0.000000   0.000000
     11          8.148688        8.148675   0.000000   0.000000
     12          8.444292        8.444302   0.000000   0.000000
     13          9.054672        9.054674   0.000000   0.000000
     14         12.431742       12.431749   0.000000   0.000000
     15         12.898981       12.898948   0.000000   0.000000
     16         13.167799       13.167751   0.000000   0.000000
 
  0.1262379E-14  0.2000000E+00  0.1262379E-14  0.1000000E-02
      1        -10.134409      -10.134491   1.000000   1.000000
      2        -10.082042      -10.082126   1.000000   1.000000
      3        -10.082042      -10.082126   1.000000   1.000000
      4         -9.977726       -9.977811   1.000000   1.000000
      5         -9.977726       -9.977811   1.000000   1.000000
      6         -7.018806       -7.018810   1.000000   1.000000
      7          1.335914        1.335904   1.000000   1.000000
      8          3.891059        3.891057   1.000000   1.000000
      9          3.891060        3.891058   1.000000   1.000000
     10          5.533857        5.533842   0.000000   0.000000
     11          8.744989        8.744997   0.000000   0.000000
     12          8.744990        8.744998   0.000000   0.000000
     13          8.856099        8.856077   0.000000   0.000000
     14         12.773228       12.773236   0.000000   0.000000
     15         12.773230       12.773238   0.000000   0.000000
     16         12.807543       12.807482   0.000000   0.000000
 
  0.1000000E+00  0.2000000E+00  0.1262379E-14  0.1000000E-02
      1        -10.136812      -10.136894   1.000000   1.000000
      2        -10.080148      -10.080232   1.000000   1.000000
      3        -10.078546      -10.078630   1.000000   1.000000
      4         -9.982856       -9.982941   1.000000   1.000000
      5         -9.974103       -9.974188   1.000000   1.000000
      6         -7.046847       -7.046851   1.000000   1.000000
      7          1.628821        1.628810   1.000000   1.000000
      8          3.618620        3.618620   1.000000   1.000000
      9          3.659799        3.659797   1.000000   1.000000
     10          6.137435        6.137420   0.000000   0.000000
     11          7.668364        7.668356   0.000000   0.000000
     12          9.167985        9.167990   0.000000   0.000000
     13          9.182851        9.182850   0.000000   0.000000
     14         11.781289       11.781281   0.000000   0.000000
     15         13.420530       13.420464   0.000000   0.000000
     16         13.665061       13.665077   0.000000   0.000000
 
  0.2000000E+00  0.2000000E+00  0.1262379E-14  0.1000000E-02
      1        -10.158630      -10.158712   1.000000   1.000000
      2        -10.069080      -10.069164   1.000000   1.000000
      3        -10.069079      -10.069163   1.000000   1.000000
      4         -9.988449       -9.988534   1.000000   1.000000
      5         -9.970774       -9.970859   1.000000   1.000000
      6         -6.892455       -6.892460   1.000000   1.000000
      7          1.295767        1.295755   1.000000   1.000000
      8          3.255171        3.255172   1.000000   1.000000
      9          3.255171        3.255172   1.000000   1.000000
     10          6.745783        6.745766   0.000000   0.000000
     11          6.957947        6.957936   0.000000   0.000000
     12          9.814311        9.814313   0.000000   0.000000
     13          9.814312        9.814314   0.000000   0.000000
     14         11.077028       11.077012   0.000000   0.000000
     15         14.257944       14.257872   0.000000   0.000000
     16         14.328221       14.328247   0.000000   0.000000
 
  0.3000000E+00  0.2000000E+00  0.1262379E-14  0.1000000E-02
      1        -10.184342      -10.184423   1.000000   1.000000
      2        -10.060032      -10.060116   1.000000   1.000000
      3        -10.058307      -10.058391   1.000000   1.000000
      4         -9.991901       -9.991986   1.000000   1.000000
      5         -9.967886       -9.967971   1.000000   1.000000
      6         -6.581554       -6.581559   1.000000   1.000000
      7          0.448792        0.448782   1.000000   1.000000
      8          2.830215        2.830215   1.000000   1.000000
      9          2.952265        2.952266   1.000000   1.000000
     10          6.755366        6.755349   0.000000   0.000000
     11          7.205078        7.205065   0.000000   0.000000
     12          9.922616        9.922605   0.000000   0.000000
     13         10.322879       10.322880   0.000000   0.000000
     14         11.642173       11.642160   0.000000   0.000000
     15         14.432374       14.432393   0.000000   0.000000
     16         14.870705       14.870655   0.000000   0.000000
 
  0.4000000E+00  0.2000000E+00  0.1262379E-14  0.1000000E-02
      1        -10.205349      -10.205429   1.000000   1.000000
      2        -10.055697      -10.055781   1.000000   1.000000
      3        -10.050700      -10.050784   1.000000   1.000000
      4         -9.990893       -9.990978   1.000000   1.000000
      5         -9.966163       -9.966248   1.000000   1.000000
      6         -6.185351       -6.185357   1.000000   1.000000
      7         -0.458999       -0.459008   1.000000   1.000000
      8          2.310760        2.310758   1.000000   1.000000
      9          2.790438        2.790440   1.000000   1.000000
     10          6.651044        6.651027   0.000000   0.000000
     11          7.984507        7.984497   0.000000   0.000000
     12          9.761834        9.761814   0.000000   0.000000
     13         10.411764       10.411767   0.000000   0.000000
     14         12.902854       12.902835   0.000000   0.000000
     15         14.772958       14.772923   0.000000   0.000000
     16         15.004906       15.004916   0.000000   0.000000
 
  0.5000000E+00  0.2000000E+00  0.1262379E-14  0.1000000E-02
      1        -10.216424      -10.216503   1.000000   1.000000
      2        -10.055348      -10.055432   1.000000   1.000000
      3        -10.048017      -10.048101   1.000000   1.000000
      4         -9.985779       -9.985864   1.000000   1.000000
      5         -9.967561       -9.967647   1.000000   1.000000
      6         -5.855105       -5.855112   1.000000   1.000000
      7         -1.096262       -1.096270   1.000000   1.000000
      8          1.886546        1.886543   1.000000   1.000000
      9          2.800842        2.800844   1.000000   1.000000
     10          6.593099        6.593083   0.000000   0.000000
     11          8.559913        8.559902   0.000000   0.000000
     12         10.209871       10.209875   0.000000   0.000000
     13         10.314106       10.314084   0.000000   0.000000
     14         13.256993       13.256963   0.000000   0.000000
     15         14.999296       14.999260   0.000000   0.000000
     16         15.116933       15.116931   0.000000   0.000000
 
 -0.4000000E+00  0.2000000E+00  0.1262379E-14  0.1000000E-02
      1        -10.214875      -10.214955   1.000000   1.000000
      2        -10.057042      -10.057126   1.000000   1.000000
      3        -10.050129      -10.050213   1.000000   1.000000
      4         -9.979602       -9.979688   1.000000   1.000000
      5         -9.972677       -9.972762   1.000000   1.000000
      6         -5.803302       -5.803309   1.000000   1.000000
      7         -1.182989       -1.182997   1.000000   1.000000
      8          1.665216        1.665213   1.000000   1.000000
      9          2.980084        2.980085   1.000000   1.000000
     10          6.637929        6.637914   0.000000   0.000000
     11          8.743582        8.743567   0.000000   0.000000
     12          9.937553        9.937559   0.000000   0.000000
     13         11.023902       11.023880   0.000000   0.000000
     14         12.843078       12.843048   0.000000   0.000000
     15         13.697529       13.697530   0.000000   0.000000
     16         14.778661       14.778630   0.000000   0.000000
 
 -0.3000000E+00  0.2000000E+00  0.1262379E-14  0.1000000E-02
      1        -10.201173      -10.201253   1.000000   1.000000
      2        -10.059992      -10.060076   1.000000   1.000000
      3        -10.057047      -10.057131   1.000000   1.000000
      4         -9.978724       -9.978810   1.000000   1.000000
      5         -9.975189       -9.975274   1.000000   1.000000
      6         -6.071737       -6.071744   1.000000   1.000000