 vasp.6.4.2 20Jul23 (build Jun  5 2025 09:16:51) complex                         
 executed on    LinuxNV_CrayMPICH date 2025.08.15  20:40:07
 running    4 mpi-ranks, with    1 threads/rank, on    1 nodes
 distrk:  each k-point on    4 cores,    1 groups
 distr:  one band on NCORE=   1 cores,    4 groups
 OpenACC runtime initialized ...    4 GPUs detected


--------------------------------------------------------------------------------------------------------


 INCAR:
   ALGO = Normal
   EDIFF = 1e-06
   EDIFFG = -0.01
   ENCUT = 520.0
   IBRION = -1
   ISIF = 3
   ISMEAR = 0
   ISPIN = 2
   LAECHG = True
   LASPH = True
   LCHARG = True
   LMAXMIX = 4
   LORBIT = 11
   LREAL = False
   LVHAR = True
   LWAVE = True
   MAGMOM = 2*0.6
   NELM = 100
   NSW = 0
   PREC = Accurate
   SIGMA = 0.05
   ISYM = -1

 POTCAR:   PAW_PBE In_d 06Sep2000                 
 POTCAR:   PAW_PBE As 06Sep2000                   
 POTCAR:   PAW_PBE In_d 06Sep2000                 
   VRHFIN =In: s2p1                                                                                 
   LEXCH  = PE                                                                                      
   EATOM  =  1576.8738 eV,  115.8970 Ry                                                             
                                                                                                    
   TITEL  = PAW_PBE In_d 06Sep2000                                                                  
   LULTRA =        F    use ultrasoft PP ?                                                          
   IUNSCR =        1    unscreen: 0-lin 1-nonlin 2-no                                               
   RPACOR =    2.200    partial core radius                                                         
   POMASS =  114.820; ZVAL   =   13.000    mass and valenz                                          
   RCORE  =    2.500    outmost cutoff radius                                                       
   RWIGS  =    3.170; RWIGS  =    1.677    wigner-seitz radius (au A)                               
   ENMAX  =  239.218; ENMIN  =  179.413 eV                                                          
   ICORE  =        3    local potential                                                             
   LCOR   =        T    correct aug charges                                                         
   LPAW   =        T    paw PP                                                                      
   EAUG   =  449.704                                                                                
   DEXC   =    -.003                                                                                
   RMAX   =    2.981    core radius for proj-oper                                                   
   RAUG   =    1.300    factor for augmentation sphere                                              
   RDEP   =    2.630    radius for radial grids                                                     
   QCUT   =   -4.193; QGAM   =    8.386    optimization parameters                                  
                                                                                                    
   Description                                                                                      
     l     E      TYP  RCUT    TYP  RCUT                                                            
     2   .000     23  2.500                                                                         
     2  -.100     23  2.500                                                                         
     0   .000     23  2.500                                                                         
     0   .000     23  2.500                                                                         
     1   .000     23  2.500                                                                         
     1   .000     23  2.500                                                                         
     3  -.100      7  2.500                                                                         
  local pseudopotential read in
  partial core-charges read in
  atomic valenz-charges read in
  non local Contribution for L=            2  read in
    real space projection operators read in
  non local Contribution for L=            2  read in
    real space projection operators read in
  non local Contribution for L=            0  read in
    real space projection operators read in
  non local Contribution for L=            0  read in
    real space projection operators read in
  non local Contribution for L=            1  read in
    real space projection operators read in
  non local Contribution for L=            1  read in
    real space projection operators read in
    PAW grid and wavefunctions read in
 
   number of l-projection  operators is LMAX  =            6
   number of lm-projection operators is LMMAX =           18
 
 POTCAR:   PAW_PBE As 06Sep2000                   
   VRHFIN =As: s2p3                                                                                 
   LEXCH  = PE                                                                                      
   EATOM  =   170.0753 eV,   12.5002 Ry                                                             
                                                                                                    
   TITEL  = PAW_PBE As 06Sep2000                                                                    
   LULTRA =        F    use ultrasoft PP ?                                                          
   IUNSCR =        1    unscreen: 0-lin 1-nonlin 2-no                                               
   RPACOR =    1.900    partial core radius                                                         
   POMASS =   74.922; ZVAL   =    5.000    mass and valenz                                          
   RCORE  =    2.100    outmost cutoff radius                                                       
   RWIGS  =    2.300; RWIGS  =    1.217    wigner-seitz radius (au A)                               
   ENMAX  =  208.680; ENMIN  =  156.510 eV                                                          
   ICORE  =        3    local potential                                                             
   LCOR   =        T    correct aug charges                                                         
   LPAW   =        T    paw PP                                                                      
   EAUG   =  462.758                                                                                
   DEXC   =    -.108                                                                                
   RMAX   =    3.192    core radius for proj-oper                                                   
   RAUG   =    1.300    factor for augmentation sphere                                              
   RDEP   =    2.140    radius for radial grids                                                     
   QCUT   =   -3.916; QGAM   =    7.833    optimization parameters                                  
                                                                                                    
   Description                                                                                      
     l     E      TYP  RCUT    TYP  RCUT                                                            
     0   .000     23  2.100                                                                         
     0   .000     23  2.100                                                                         
     1   .000     23  2.100                                                                         
     1   .000     23  2.100                                                                         
     2   .000     23  2.100                                                                         
     3  -.100      7  2.100                                                                         
  local pseudopotential read in
  partial core-charges read in
  atomic valenz-charges read in
  non local Contribution for L=            0  read in
    real space projection operators read in
  non local Contribution for L=            0  read in
    real space projection operators read in
  non local Contribution for L=            1  read in
    real space projection operators read in
  non local Contribution for L=            1  read in
    real space projection operators read in
  non local Contribution for L=            2  read in
    real space projection operators read in
    PAW grid and wavefunctions read in
 
   number of l-projection  operators is LMAX  =            5
   number of lm-projection operators is LMMAX =           13
 
 PAW_PBE In_d 06Sep2000                 :
 energy of atom  1       EATOM=-1576.8738
 kinetic energy error for atom=    0.0029 (will be added to EATOM!!)
 PAW_PBE As 06Sep2000                   :
 energy of atom  2       EATOM= -170.0753
 kinetic energy error for atom=    0.0005 (will be added to EATOM!!)
 
 
 POSCAR: In1 As1
  positions in direct lattice
  velocities in cartesian coordinates
  No initial velocities read in
 exchange correlation table for  LEXCH =        8
   RHO(1)=    0.500       N(1)  =     2000
   RHO(2)=  100.500       N(2)  =     4000
 


--------------------------------------------------------------------------------------------------------


 ion  position               nearest neighbor table
   1  0.250  0.250  0.250-   2 2.64   2 2.64   2 2.64   2 2.64
   2  0.000  0.000  0.000-   1 2.64   1 2.64   1 2.64   1 2.64
 

IMPORTANT INFORMATION: All symmetrisations will be switched off!
NOSYMM: (Re-)initialisation of all symmetry stuff for point group C_1.


----------------------------------------------------------------------------------------

                                     Primitive cell                                     

  volume of cell :      56.5471

  direct lattice vectors                    reciprocal lattice vectors
     3.731119293 -0.000000001  2.154162313     0.268016089 -0.094758042  0.000000000
     1.243706769  3.517732307  2.154162313     0.000000000  0.284274047  0.000000000
    -0.000000000 -0.000000000  4.308324616    -0.134008045 -0.094758003  0.232108787

  length of vectors
     4.308325248  4.308324776  4.308324616     0.284274006  0.284274047  0.284274030

  position of ions in fractional coordinates (direct lattice)
     0.250000000  0.250000000  0.250000000
     0.000000000  0.000000000  0.000000000

  ion indices of the primitive-cell ions
   primitive index   ion index
                 1           1
                 2           2

----------------------------------------------------------------------------------------

 
 
 KPOINTS: pymatgen with grid density = 835 / numbe

Automatic generation of k-mesh.
 Grid dimensions read from file:
 generate k-points for:   10   10   10

 Generating k-lattice:

  Cartesian coordinates                     Fractional coordinates (reciprocal lattice)
     0.026801609 -0.009475804  0.000000000     0.100000000 -0.000000000 -0.000000000
     0.000000000  0.028427405  0.000000000     0.000000000  0.100000000  0.000000000
    -0.013400804 -0.009475800  0.023210879     0.000000000 -0.000000000  0.100000000

  Length of vectors
     0.028427401  0.028427405  0.028427403

  Shift w.r.t. Gamma in fractional coordinates (k-lattice)
     0.000000000  0.000000000  0.000000000

 
 Subroutine IBZKPT returns following result:
 ===========================================
 
 Found   1000 irreducible k-points:
 
 Following reciprocal coordinates:
            Coordinates               Weight
  0.000000  0.000000  0.000000      1.000000
  0.100000  0.000000  0.000000      1.000000
  0.200000  0.000000  0.000000      1.000000
  0.300000  0.000000  0.000000      1.000000
  0.400000  0.000000  0.000000      1.000000
  0.500000  0.000000  0.000000      1.000000
 -0.400000  0.000000  0.000000      1.000000
 -0.300000  0.000000  0.000000      1.000000
 -0.200000  0.000000  0.000000      1.000000
 -0.100000  0.000000  0.000000      1.000000
  0.000000  0.100000  0.000000      1.000000
  0.100000  0.100000  0.000000      1.000000
  0.200000  0.100000  0.000000      1.000000
  0.300000  0.100000  0.000000      1.000000
  0.400000  0.100000  0.000000      1.000000
  0.500000  0.100000  0.000000      1.000000
 -0.400000  0.100000  0.000000      1.000000
 -0.300000  0.100000  0.000000      1.000000
 -0.200000  0.100000  0.000000      1.000000
 -0.100000  0.100000  0.000000      1.000000
  0.000000  0.200000  0.000000      1.000000
  0.100000  0.200000  0.000000      1.000000
  0.200000  0.200000  0.000000      1.000000
  0.300000  0.200000  0.000000      1.000000
  0.400000  0.200000  0.000000      1.000000
  0.500000  0.200000  0.000000      1.000000
 -0.400000  0.200000  0.000000      1.000000
 -0.300000  0.200000  0.000000      1.000000
 -0.200000  0.200000  0.000000      1.000000
 -0.100000  0.200000  0.000000      1.000000
  0.000000  0.300000  0.000000      1.000000
  0.100000  0.300000  0.000000      1.000000
  0.200000  0.300000  0.000000      1.000000
  0.300000  0.300000  0.000000      1.000000
  0.400000  0.300000  0.000000      1.000000
  0.500000  0.300000  0.000000      1.000000
 -0.400000  0.300000  0.000000      1.000000
 -0.300000  0.300000  0.000000      1.000000
 -0.200000  0.300000  0.000000      1.000000
 -0.100000  0.300000  0.000000      1.000000
  0.000000  0.400000  0.000000      1.000000
  0.100000  0.400000  0.000000      1.000000
  0.200000  0.400000  0.000000      1.000000
  0.300000  0.400000  0.000000      1.000000
  0.400000  0.400000  0.000000      1.000000
  0.500000  0.400000  0.000000      1.000000
 -0.400000  0.400000  0.000000      1.000000
 -0.300000  0.400000  0.000000      1.000000
 -0.200000  0.400000  0.000000      1.000000
 -0.100000  0.400000  0.000000      1.000000
  0.000000  0.500000  0.000000      1.000000
  0.100000  0.500000  0.000000      1.000000
  0.200000  0.500000  0.000000      1.000000
  0.300000  0.500000  0.000000      1.000000
  0.400000  0.500000  0.000000      1.000000
  0.500000  0.500000  0.000000      1.000000
 -0.400000  0.500000  0.000000      1.000000
 -0.300000  0.500000  0.000000      1.000000
 -0.200000  0.500000  0.000000      1.000000
 -0.100000  0.500000  0.000000      1.000000
  0.000000 -0.400000  0.000000      1.000000
  0.100000 -0.400000  0.000000      1.000000
  0.200000 -0.400000  0.000000      1.000000
  0.300000 -0.400000  0.000000      1.000000
  0.400000 -0.400000  0.000000      1.000000
  0.500000 -0.400000  0.000000      1.000000
 -0.400000 -0.400000  0.000000      1.000000
 -0.300000 -0.400000  0.000000      1.000000
 -0.200000 -0.400000  0.000000      1.000000
 -0.100000 -0.400000  0.000000      1.000000
  0.000000 -0.300000  0.000000      1.000000
  0.100000 -0.300000  0.000000      1.000000
  0.200000 -0.300000  0.000000      1.000000
  0.300000 -0.300000  0.000000      1.000000
  0.400000 -0.300000  0.000000      1.000000
  0.500000 -0.300000  0.000000      1.000000
 -0.400000 -0.300000  0.000000      1.000000
 -0.300000 -0.300000  0.000000      1.000000
 -0.200000 -0.300000  0.000000      1.000000
 -0.100000 -0.300000  0.000000      1.000000
  0.000000 -0.200000  0.000000      1.000000
  0.100000 -0.200000  0.000000      1.000000
  0.200000 -0.200000  0.000000      1.000000
  0.300000 -0.200000  0.000000      1.000000
  0.400000 -0.200000  0.000000      1.000000
  0.500000 -0.200000  0.000000      1.000000
 -0.400000 -0.200000  0.000000      1.000000
 -0.300000 -0.200000  0.000000      1.000000
 -0.200000 -0.200000  0.000000      1.000000
 -0.100000 -0.200000  0.000000      1.000000
  0.000000 -0.100000  0.000000      1.000000
  0.100000 -0.100000  0.000000      1.000000
  0.200000 -0.100000  0.000000      1.000000
  0.300000 -0.100000  0.000000      1.000000
  0.400000 -0.100000  0.000000      1.000000
  0.500000 -0.100000  0.000000      1.000000
 -0.400000 -0.100000  0.000000      1.000000
 -0.300000 -0.100000  0.000000      1.000000
 -0.200000 -0.100000  0.000000      1.000000
 -0.100000 -0.100000  0.000000      1.000000
  0.000000  0.000000  0.100000      1.000000
  0.100000  0.000000  0.100000      1.000000
  0.200000  0.000000  0.100000      1.000000
  0.300000  0.000000  0.100000      1.000000
  0.400000  0.000000  0.100000      1.000000
  0.500000  0.000000  0.100000      1.000000
 -0.400000  0.000000  0.100000      1.000000
 -0.300000  0.000000  0.100000      1.000000
 -0.200000  0.000000  0.100000      1.000000
 -0.100000  0.000000  0.100000      1.000000
  0.000000  0.100000  0.100000      1.000000
  0.100000  0.100000  0.100000      1.000000
  0.200000  0.100000  0.100000      1.000000
  0.300000  0.100000  0.100000      1.000000
  0.400000  0.100000  0.100000      1.000000
  0.500000  0.100000  0.100000      1.000000
 -0.400000  0.100000  0.100000      1.000000
 -0.300000  0.100000  0.100000      1.000000
 -0.200000  0.100000  0.100000      1.000000
 -0.100000  0.100000  0.100000      1.000000
  0.000000  0.200000  0.100000      1.000000
  0.100000  0.200000  0.100000      1.000000
  0.200000  0.200000  0.100000      1.000000
  0.300000  0.200000  0.100000      1.000000
  0.400000  0.200000  0.100000      1.000000
  0.500000  0.200000  0.100000      1.000000
 -0.400000  0.200000  0.100000      1.000000
 -0.300000  0.200000  0.100000      1.000000
 -0.200000  0.200000  0.100000      1.000000
 -0.100000  0.200000  0.100000      1.000000
  0.000000  0.300000  0.100000      1.000000
  0.100000  0.300000  0.100000      1.000000
  0.200000  0.300000  0.100000      1.000000
  0.300000  0.300000  0.100000      1.000000
  0.400000  0.300000  0.100000      1.000000
  0.500000  0.300000  0.100000      1.000000
 -0.400000  0.300000  0.100000      1.000000
 -0.300000  0.300000  0.100000      1.000000
 -0.200000  0.300000  0.100000      1.000000
 -0.100000  0.300000  0.100000      1.000000
  0.000000  0.400000  0.100000      1.000000
  0.100000  0.400000  0.100000      1.000000
  0.200000  0.400000  0.100000      1.000000
  0.300000  0.400000  0.100000      1.000000
  0.400000  0.400000  0.100000      1.000000
  0.500000  0.400000  0.100000      1.000000
 -0.400000  0.400000  0.100000      1.000000
 -0.300000  0.400000  0.100000      1.000000
 -0.200000  0.400000  0.100000      1.000000
 -0.100000  0.400000  0.100000      1.000000
  0.000000  0.500000  0.100000      1.000000
  0.100000  0.500000  0.100000      1.000000
  0.200000  0.500000  0.100000      1.000000
  0.300000  0.500000  0.100000      1.000000
  0.400000  0.500000  0.100000      1.000000
  0.500000  0.500000  0.100000      1.000000
 -0.400000  0.500000  0.100000      1.000000
 -0.300000  0.500000  0.100000      1.000000
 -0.200000  0.500000  0.100000      1.000000
 -0.100000  0.500000  0.100000      1.000000
  0.000000 -0.400000  0.100000      1.000000
  0.100000 -0.400000  0.100000      1.000000
  0.200000 -0.400000  0.100000      1.000000
  0.300000 -0.400000  0.100000      1.000000
  0.400000 -0.400000  0.100000      1.000000
  0.500000 -0.400000  0.100000      1.000000
 -0.400000 -0.400000  0.100000      1.000000
 -0.300000 -0.400000  0.100000      1.000000
 -0.200000 -0.400000  0.100000      1.000000
 -0.100000 -0.400000  0.100000      1.000000
  0.000000 -0.300000  0.100000      1.000000
  0.100000 -0.300000  0.100000      1.000000
  0.200000 -0.300000  0.100000      1.000000
  0.300000 -0.300000  0.100000      1.000000
  0.400000 -0.300000  0.100000      1.000000
  0.500000 -0.300000  0.100000      1.000000
 -0.400000 -0.300000  0.100000      1.000000
 -0.300000 -0.300000  0.100000      1.000000
 -0.200000 -0.300000  0.100000      1.000000
 -0.100000 -0.300000  0.100000      1.000000
  0.000000 -0.200000  0.100000      1.000000
  0.100000 -0.200000  0.100000      1.000000
  0.200000 -0.200000  0.100000      1.000000
  0.300000 -0.200000  0.100000      1.000000
  0.400000 -0.200000  0.100000      1.000000
  0.500000 -0.200000  0.100000      1.000000
 -0.400000 -0.200000  0.100000      1.000000
 -0.300000 -0.200000  0.100000      1.000000
 -0.200000 -0.200000  0.100000      1.000000
 -0.100000 -0.200000  0.100000      1.000000
  0.000000 -0.100000  0.100000      1.000000
  0.100000 -0.100000  0.100000      1.000000
  0.200000 -0.100000  0.100000      1.000000
  0.300000 -0.100000  0.100000      1.000000
  0.400000 -0.100000  0.100000      1.000000
  0.500000 -0.100000  0.100000      1.000000
 -0.400000 -0.100000  0.100000      1.000000
 -0.300000 -0.100000  0.100000      1.000000
 -0.200000 -0.100000  0.100000      1.000000
 -0.100000 -0.100000  0.100000      1.000000
  0.000000  0.000000  0.200000      1.000000
  0.100000  0.000000  0.200000      1.000000
  0.200000  0.000000  0.200000      1.000000
  0.300000  0.000000  0.200000      1.000000
  0.400000  0.000000  0.200000      1.000000
  0.500000  0.000000  0.200000      1.000000
 -0.400000  0.000000  0.200000      1.000000
 -0.300000  0.000000  0.200000      1.000000
 -0.200000  0.000000  0.200000      1.000000
 -0.100000  0.000000  0.200000      1.000000
  0.000000  0.100000  0.200000      1.000000
  0.100000  0.100000  0.200000      1.000000
  0.200000  0.100000  0.200000      1.000000
  0.300000  0.100000  0.200000      1.000000
  0.400000  0.100000  0.200000      1.000000
  0.500000  0.100000  0.200000      1.000000
 -0.400000  0.100000  0.200000      1.000000
 -0.300000  0.100000  0.200000      1.000000
 -0.200000  0.100000  0.200000      1.000000
 -0.100000  0.100000  0.200000      1.000000
  0.000000  0.200000  0.200000      1.000000
  0.100000  0.200000  0.200000      1.000000
  0.200000  0.200000  0.200000      1.000000
  0.300000  0.200000  0.200000      1.000000
  0.400000  0.200000  0.200000      1.000000
  0.500000  0.200000  0.200000      1.000000
 -0.400000  0.200000  0.200000      1.000000
 -0.300000  0.200000  0.200000      1.000000
 -0.200000  0.200000  0.200000      1.000000
 -0.100000  0.200000  0.200000      1.000000
  0.000000  0.300000  0.200000      1.000000
  0.100000  0.300000  0.200000      1.000000
  0.200000  0.300000  0.200000      1.000000
  0.300000  0.300000  0.200000      1.000000
  0.400000  0.300000  0.200000      1.000000
  0.500000  0.300000  0.200000      1.000000
 -0.400000  0.300000  0.200000      1.000000
 -0.300000  0.300000  0.200000      1.000000
 -0.200000  0.300000  0.200000      1.000000
 -0.100000  0.300000  0.200000      1.000000
  0.000000  0.400000  0.200000      1.000000
  0.100000  0.400000  0.200000      1.000000
  0.200000  0.400000  0.200000      1.000000
  0.300000  0.400000  0.200000      1.000000
  0.400000  0.400000  0.200000      1.000000
  0.500000  0.400000  0.200000      1.000000
 -0.400000  0.400000  0.200000      1.000000
 -0.300000  0.400000  0.200000      1.000000
 -0.200000  0.400000  0.200000      1.000000
 -0.100000  0.400000  0.200000      1.000000
  0.000000  0.500000  0.200000      1.000000
  0.100000  0.500000  0.200000      1.000000
  0.200000  0.500000  0.200000      1.000000
  0.300000  0.500000  0.200000      1.000000
  0.400000  0.500000  0.200000      1.000000
  0.500000  0.500000  0.200000      1.000000
 -0.400000  0.500000  0.200000      1.000000
 -0.300000  0.500000  0.200000      1.000000
 -0.200000  0.500000  0.200000      1.000000
 -0.100000  0.500000  0.200000      1.000000
  0.000000 -0.400000  0.200000      1.000000
  0.100000 -0.400000  0.200000      1.000000
  0.200000 -0.400000  0.200000      1.000000
  0.300000 -0.400000  0.200000      1.000000
  0.400000 -0.400000  0.200000      1.000000
  0.500000 -0.400000  0.200000      1.000000
 -0.400000 -0.400000  0.200000      1.000000
 -0.300000 -0.400000  0.200000      1.000000
 -0.200000 -0.400000  0.200000      1.000000
 -0.100000 -0.400000  0.200000      1.000000
  0.000000 -0.300000  0.200000      1.000000
  0.100000 -0.300000  0.200000      1.000000
  0.200000 -0.300000  0.200000      1.000000
  0.300000 -0.300000  0.200000      1.000000
  0.400000 -0.300000  0.200000      1.000000
  0.500000 -0.300000  0.200000      1.000000
 -0.400000 -0.300000  0.200000      1.000000
 -0.300000 -0.300000  0.200000      1.000000
 -0.200000 -0.300000  0.200000      1.000000
 -0.100000 -0.300000  0.200000      1.000000
  0.000000 -0.200000  0.200000      1.000000
  0.100000 -0.200000  0.200000      1.000000
  0.200000 -0.200000  0.200000      1.000000
  0.300000 -0.200000  0.200000      1.000000
  0.400000 -0.200000  0.200000      1.000000
  0.500000 -0.200000  0.200000      1.000000
 -0.400000 -0.200000  0.200000      1.000000
 -0.300000 -0.200000  0.200000      1.000000
 -0.200000 -0.200000  0.200000      1.000000
 -0.100000 -0.200000  0.200000      1.000000
  0.000000 -0.100000  0.200000      1.000000
  0.100000 -0.100000  0.200000      1.000000
  0.200000 -0.100000  0.200000      1.000000
  0.300000 -0.100000  0.200000      1.000000
  0.400000 -0.100000  0.200000      1.000000
  0.500000 -0.100000  0.200000      1.000000
 -0.400000 -0.100000  0.200000      1.000000
 -0.300000 -0.100000  0.200000      1.000000
 -0.200000 -0.100000  0.200000      1.000000
 -0.100000 -0.100000  0.200000      1.000000
  0.000000  0.000000  0.300000      1.000000
  0.100000  0.000000  0.300000      1.000000
  0.200000  0.000000  0.300000      1.000000
  0.300000  0.000000  0.300000      1.000000
  0.400000  0.000000  0.300000      1.000000
  0.500000  0.000000  0.300000      1.000000
 -0.400000  0.000000  0.300000      1.000000
 -0.300000  0.000000  0.300000      1.000000
 -0.200000  0.000000  0.300000      1.000000
 -0.100000  0.000000  0.300000      1.000000
  0.000000  0.100000  0.300000      1.000000
  0.100000  0.100000  0.300000      1.000000
  0.200000  0.100000  0.300000      1.000000
  0.300000  0.100000  0.300000      1.000000
  0.400000  0.100000  0.300000      1.000000
  0.500000  0.100000  0.300000      1.000000
 -0.400000  0.100000  0.300000      1.000000
 -0.300000  0.100000  0.300000      1.000000
 -0.200000  0.100000  0.300000      1.000000
 -0.100000  0.100000  0.300000      1.000000
  0.000000  0.200000  0.300000      1.000000
  0.100000  0.200000  0.300000      1.000000
  0.200000  0.200000  0.300000      1.000000
  0.300000  0.200000  0.300000      1.000000
  0.400000  0.200000  0.300000      1.000000
  0.500000  0.200000  0.300000      1.000000
 -0.400000  0.200000  0.300000      1.000000
 -0.300000  0.200000  0.300000      1.000000
 -0.200000  0.200000  0.300000      1.000000
 -0.100000  0.200000  0.300000      1.000000
  0.000000  0.300000  0.300000      1.000000
  0.100000  0.300000  0.300000      1.000000
  0.200000  0.300000  0.300000      1.000000
  0.300000  0.300000  0.300000      1.000000
  0.400000  0.300000  0.300000      1.000000
  0.500000  0.300000  0.300000      1.000000
 -0.400000  0.300000  0.300000      1.000000
 -0.300000  0.300000  0.300000      1.000000
 -0.200000  0.300000  0.300000      1.000000
 -0.100000  0.300000  0.300000      1.000000
  0.000000  0.400000  0.300000      1.000000
  0.100000  0.400000  0.300000      1.000000
  0.200000  0.400000  0.300000      1.000000
  0.300000  0.400000  0.300000      1.000000
  0.400000  0.400000  0.300000      1.000000
  0.500000  0.400000  0.300000      1.000000
 -0.400000  0.400000  0.300000      1.000000
 -0.300000  0.400000  0.300000      1.000000
 -0.200000  0.400000  0.300000      1.000000
 -0.100000  0.400000  0.300000      1.000000
  0.000000  0.500000  0.300000      1.000000
  0.100000  0.500000  0.300000      1.000000
  0.200000  0.500000  0.300000      1.000000
  0.300000  0.500000  0.300000      1.000000
  0.400000  0.500000  0.300000      1.000000
  0.500000  0.500000  0.300000      1.000000
 -0.400000  0.500000  0.300000      1.000000
 -0.300000  0.500000  0.300000      1.000000
 -0.200000  0.500000  0.300000      1.000000
 -0.100000  0.500000  0.300000      1.000000
  0.000000 -0.400000  0.300000      1.000000
  0.100000 -0.400000  0.300000      1.000000
  0.200000 -0.400000  0.300000      1.000000
  0.300000 -0.400000  0.300000      1.000000
  0.400000 -0.400000  0.300000      1.000000
  0.500000 -0.400000  0.300000      1.000000
 -0.400000 -0.400000  0.300000      1.000000
 -0.300000 -0.400000  0.300000      1.000000
 -0.200000 -0.400000  0.300000      1.000000
 -0.100000 -0.400000  0.300000      1.000000
  0.000000 -0.300000  0.300000      1.000000
  0.100000 -0.300000  0.300000      1.000000
  0.200000 -0.300000  0.300000      1.000000
  0.300000 -0.300000  0.300000      1.000000
  0.400000 -0.300000  0.300000      1.000000
  0.500000 -0.300000  0.300000      1.000000
 -0.400000 -0.300000  0.300000      1.000000
 -0.300000 -0.300000  0.300000      1.000000
 -0.200000 -0.300000  0.300000      1.000000
 -0.100000 -0.300000  0.300000      1.000000
  0.000000 -0.200000  0.300000      1.000000
  0.100000 -0.200000  0.300000      1.000000
  0.200000 -0.200000  0.300000      1.000000
  0.300000 -0.200000  0.300000      1.000000
  0.400000 -0.200000  0.300000      1.000000
  0.500000 -0.200000  0.300000      1.000000
 -0.400000 -0.200000  0.300000      1.000000
 -0.300000 -0.200000  0.300000      1.000000
 -0.200000 -0.200000  0.300000      1.000000
 -0.100000 -0.200000  0.300000      1.000000
  0.000000 -0.100000  0.300000      1.000000
  0.100000 -0.100000  0.300000      1.000000
  0.200000 -0.100000  0.300000      1.000000
  0.300000 -0.100000  0.300000      1.000000
  0.400000 -0.100000  0.300000      1.000000
  0.500000 -0.100000  0.300000      1.000000
 -0.400000 -0.100000  0.300000      1.000000
 -0.300000 -0.100000  0.300000      1.000000
 -0.200000 -0.100000  0.300000      1.000000
 -0.100000 -0.100000  0.300000      1.000000
  0.000000  0.000000  0.400000      1.000000
  0.100000  0.000000  0.400000      1.000000
  0.200000  0.000000  0.400000      1.000000
  0.300000  0.000000  0.400000      1.000000
  0.400000  0.000000  0.400000      1.000000
  0.500000  0.000000  0.400000      1.000000
 -0.400000  0.000000  0.400000      1.000000
 -0.300000  0.000000  0.400000      1.000000
 -0.200000  0.000000  0.400000      1.000000
 -0.100000  0.000000  0.400000      1.000000
  0.000000  0.100000  0.400000      1.000000
  0.100000  0.100000  0.400000      1.000000
  0.200000  0.100000  0.400000      1.000000
  0.300000  0.100000  0.400000      1.000000
  0.400000  0.100000  0.400000      1.000000
  0.500000  0.100000  0.400000      1.000000
 -0.400000  0.100000  0.400000      1.000000
 -0.300000  0.100000  0.400000      1.000000
 -0.200000  0.100000  0.400000      1.000000
 -0.100000  0.100000  0.400000      1.000000
  0.000000  0.200000  0.400000      1.000000
  0.100000  0.200000  0.400000      1.000000
  0.200000  0.200000  0.400000      1.000000
  0.300000  0.200000  0.400000      1.000000
  0.400000  0.200000  0.400000      1.000000
  0.500000  0.200000  0.400000      1.000000
 -0.400000  0.200000  0.400000      1.000000
 -0.300000  0.200000  0.400000      1.000000
 -0.200000  0.200000  0.400000      1.000000
 -0.100000  0.200000  0.400000      1.000000
  0.000000  0.300000  0.400000      1.000000
  0.100000  0.300000  0.400000      1.000000
  0.200000  0.300000  0.400000      1.000000
  0.300000  0.300000  0.400000      1.000000
  0.400000  0.300000  0.400000      1.000000
  0.500000  0.300000  0.400000      1.000000
 -0.400000  0.300000  0.400000      1.000000
 -0.300000  0.300000  0.400000      1.000000
 -0.200000  0.300000  0.400000      1.000000
 -0.100000  0.300000  0.400000      1.000000
  0.000000  0.400000  0.400000      1.000000
  0.100000  0.400000  0.400000      1.000000
  0.200000  0.400000  0.400000      1.000000
  0.300000  0.400000  0.400000      1.000000
  0.400000  0.400000  0.400000      1.000000
  0.500000  0.400000  0.400000      1.000000
 -0.400000  0.400000  0.400000      1.000000
 -0.300000  0.400000  0.400000      1.000000
 -0.200000  0.400000  0.400000      1.000000
 -0.100000  0.400000  0.400000      1.000000
  0.000000  0.500000  0.400000      1.000000
  0.100000  0.500000  0.400000      1.000000
  0.200000  0.500000  0.400000      1.000000
  0.300000  0.500000  0.400000      1.000000
  0.400000  0.500000  0.400000      1.000000
  0.500000  0.500000  0.400000      1.000000
 -0.400000  0.500000  0.400000      1.000000
 -0.300000  0.500000  0.400000      1.000000
 -0.200000  0.500000  0.400000      1.000000
 -0.100000  0.500000  0.400000      1.000000
  0.000000 -0.400000  0.400000      1.000000
  0.100000 -0.400000  0.400000      1.000000
  0.200000 -0.400000  0.400000      1.000000
  0.300000 -0.400000  0.400000      1.000000
  0.400000 -0.400000  0.400000      1.000000
  0.500000 -0.400000  0.400000      1.000000
 -0.400000 -0.400000  0.400000      1.000000
 -0.300000 -0.400000  0.400000      1.000000
 -0.200000 -0.400000  0.400000      1.000000
 -0.100000 -0.400000  0.400000      1.000000
  0.000000 -0.300000  0.400000      1.000000
  0.100000 -0.300000  0.400000      1.000000
  0.200000 -0.300000  0.400000      1.000000
  0.300000 -0.300000  0.400000      1.000000
  0.400000 -0.300000  0.400000      1.000000
  0.500000 -0.300000  0.400000      1.000000
 -0.400000 -0.300000  0.400000      1.000000
 -0.300000 -0.300000  0.400000      1.000000
 -0.200000 -0.300000  0.400000      1.000000
 -0.100000 -0.300000  0.400000      1.000000
  0.000000 -0.200000  0.400000      1.000000
  0.100000 -0.200000  0.400000      1.000000
  0.200000 -0.200000  0.400000      1.000000
  0.300000 -0.200000  0.400000      1.000000
  0.400000 -0.200000  0.400000      1.000000
  0.500000 -0.200000  0.400000      1.000000
 -0.400000 -0.200000  0.400000      1.000000
 -0.300000 -0.200000  0.400000      1.000000
 -0.200000 -0.200000  0.400000      1.000000
 -0.100000 -0.200000  0.400000      1.000000
  0.000000 -0.100000  0.400000      1.000000
  0.100000 -0.100000  0.400000      1.000000
  0.200000 -0.100000  0.400000      1.000000
  0.300000 -0.100000  0.400000      1.000000
  0.400000 -0.100000  0.400000      1.000000
  0.500000 -0.100000  0.400000      1.000000
 -0.400000 -0.100000  0.400000      1.000000
 -0.300000 -0.100000  0.400000      1.000000
 -0.200000 -0.100000  0.400000      1.000000
 -0.100000 -0.100000  0.400000      1.000000
  0.000000  0.000000  0.500000      1.000000
  0.100000  0.000000  0.500000      1.000000
  0.200000  0.000000  0.500000      1.000000
  0.300000  0.000000  0.500000      1.000000
  0.400000  0.000000  0.500000      1.000000
  0.500000  0.000000  0.500000      1.000000
 -0.400000  0.000000  0.500000      1.000000
 -0.300000  0.000000  0.500000      1.000000
 -0.200000  0.000000  0.500000      1.000000
 -0.100000  0.000000  0.500000      1.000000
  0.000000  0.100000  0.500000      1.000000
  0.100000  0.100000  0.500000      1.000000
  0.200000  0.100000  0.500000      1.000000
  0.300000  0.100000  0.500000      1.000000
  0.400000  0.100000  0.500000      1.000000
  0.500000  0.100000  0.500000      1.000000
 -0.400000  0.100000  0.500000      1.000000
 -0.300000  0.100000  0.500000      1.000000
 -0.200000  0.100000  0.500000      1.000000
 -0.100000  0.100000  0.500000      1.000000
  0.000000  0.200000  0.500000      1.000000
  0.100000  0.200000  0.500000      1.000000
  0.200000  0.200000  0.500000      1.000000
  0.300000  0.200000  0.500000      1.000000
  0.400000  0.200000  0.500000      1.000000
  0.500000  0.200000  0.500000      1.000000
 -0.400000  0.200000  0.500000      1.000000
 -0.300000  0.200000  0.500000      1.000000
 -0.200000  0.200000  0.500000      1.000000
 -0.100000  0.200000  0.500000      1.000000
  0.000000  0.300000  0.500000      1.000000
  0.100000  0.300000  0.500000      1.000000
  0.200000  0.300000  0.500000      1.000000
  0.300000  0.300000  0.500000      1.000000
  0.400000  0.300000  0.500000      1.000000
  0.500000  0.300000  0.500000      1.000000
 -0.400000  0.300000  0.500000      1.000000
 -0.300000  0.300000  0.500000      1.000000
 -0.200000  0.300000  0.500000      1.000000
 -0.100000  0.300000  0.500000      1.000000
  0.000000  0.400000  0.500000      1.000000
  0.100000  0.400000  0.500000      1.000000
  0.200000  0.400000  0.500000      1.000000
  0.300000  0.400000  0.500000      1.000000
  0.400000  0.400000  0.500000      1.000000
  0.500000  0.400000  0.500000      1.000000
 -0.400000  0.400000  0.500000      1.000000
 -0.300000  0.400000  0.500000      1.000000
 -0.200000  0.400000  0.500000      1.000000
 -0.100000  0.400000  0.500000      1.000000
  0.000000  0.500000  0.500000      1.000000
  0.100000  0.500000  0.500000      1.000000
  0.200000  0.500000  0.500000      1.000000
  0.300000  0.500000  0.500000      1.000000
  0.400000  0.500000  0.500000      1.000000
  0.500000  0.500000  0.500000      1.000000
 -0.400000  0.500000  0.500000      1.000000
 -0.300000  0.500000  0.500000      1.000000
 -0.200000  0.500000  0.500000      1.000000
 -0.100000  0.500000  0.500000      1.000000
  0.000000 -0.400000  0.500000      1.000000
  0.100000 -0.400000  0.500000      1.000000
  0.200000 -0.400000  0.500000      1.000000
  0.300000 -0.400000  0.500000      1.000000
  0.400000 -0.400000  0.500000      1.000000
  0.500000 -0.400000  0.500000      1.000000
 -0.400000 -0.400000  0.500000      1.000000
 -0.300000 -0.400000  0.500000      1.000000
 -0.200000 -0.400000  0.500000      1.000000
 -0.100000 -0.400000  0.500000      1.000000
  0.000000 -0.300000  0.500000      1.000000
  0.100000 -0.300000  0.500000      1.000000
  0.200000 -0.300000  0.500000      1.000000
  0.300000 -0.300000  0.500000      1.000000
  0.400000 -0.300000  0.500000      1.000000
  0.500000 -0.300000  0.500000      1.000000
 -0.400000 -0.300000  0.500000      1.000000
 -0.300000 -0.300000  0.500000      1.000000
 -0.200000 -0.300000  0.500000      1.000000
 -0.100000 -0.300000  0.500000      1.000000
  0.000000 -0.200000  0.500000      1.000000
  0.100000 -0.200000  0.500000      1.000000
  0.200000 -0.200000  0.500000      1.000000
  0.300000 -0.200000  0.500000      1.000000
  0.400000 -0.200000  0.500000      1.000000
  0.500000 -0.200000  0.500000      1.000000
 -0.400000 -0.200000  0.500000      1.000000
 -0.300000 -0.200000  0.500000      1.000000
 -0.200000 -0.200000  0.500000      1.000000
 -0.100000 -0.200000  0.500000      1.000000
  0.000000 -0.100000  0.500000      1.000000
  0.100000 -0.100000  0.500000      1.000000
  0.200000 -0.100000  0.500000      1.000000
  0.300000 -0.100000  0.500000      1.000000
  0.400000 -0.100000  0.500000      1.000000
  0.500000 -0.100000  0.500000      1.000000
 -0.400000 -0.100000  0.500000      1.000000
 -0.300000 -0.100000  0.500000      1.000000
 -0.200000 -0.100000  0.500000      1.000000
 -0.100000 -0.100000  0.500000      1.000000
  0.000000  0.000000 -0.400000      1.000000
  0.100000  0.000000 -0.400000      1.000000
  0.200000  0.000000 -0.400000      1.000000
  0.300000  0.000000 -0.400000      1.000000
  0.400000  0.000000 -0.400000      1.000000
  0.500000  0.000000 -0.400000      1.000000
 -0.400000  0.000000 -0.400000      1.000000
 -0.300000  0.000000 -0.400000      1.000000
 -0.200000  0.000000 -0.400000      1.000000
 -0.100000  0.000000 -0.400000      1.000000
  0.000000  0.100000 -0.400000      1.000000
  0.100000  0.100000 -0.400000      1.000000
  0.200000  0.100000 -0.400000      1.000000
  0.300000  0.100000 -0.400000      1.000000
  0.400000  0.100000 -0.400000      1.000000
  0.500000  0.100000 -0.400000      1.000000
 -0.400000  0.100000 -0.400000      1.000000
 -0.300000  0.100000 -0.400000      1.000000
 -0.200000  0.100000 -0.400000      1.000000
 -0.100000  0.100000 -0.400000      1.000000
  0.000000  0.200000 -0.400000      1.000000
  0.100000  0.200000 -0.400000      1.000000
  0.200000  0.200000 -0.400000      1.000000
  0.300000  0.200000 -0.400000      1.000000
  0.400000  0.200000 -0.400000      1.000000
  0.500000  0.200000 -0.400000      1.000000
 -0.400000  0.200000 -0.400000      1.000000
 -0.300000  0.200000 -0.400000      1.000000
 -0.200000  0.200000 -0.400000      1.000000
 -0.100000  0.200000 -0.400000      1.000000
  0.000000  0.300000 -0.400000      1.000000
  0.100000  0.300000 -0.400000      1.000000
  0.200000  0.300000 -0.400000      1.000000
  0.300000  0.300000 -0.400000      1.000000
  0.400000  0.300000 -0.400000      1.000000
  0.500000  0.300000 -0.400000      1.000000
 -0.400000  0.300000 -0.400000      1.000000
 -0.300000  0.300000 -0.400000      1.000000
 -0.200000  0.300000 -0.400000      1.000000
 -0.100000  0.300000 -0.400000      1.000000
  0.000000  0.400000 -0.400000      1.000000
  0.100000  0.400000 -0.400000      1.000000
  0.200000  0.400000 -0.400000      1.000000
  0.300000  0.400000 -0.400000      1.000000
  0.400000  0.400000 -0.400000      1.000000
  0.500000  0.400000 -0.400000      1.000000
 -0.400000  0.400000 -0.400000      1.000000
 -0.300000  0.400000 -0.400000      1.000000
 -0.200000  0.400000 -0.400000      1.000000
 -0.100000  0.400000 -0.400000      1.000000
  0.000000  0.500000 -0.400000      1.000000
  0.100000  0.500000 -0.400000      1.000000
  0.200000  0.500000 -0.400000      1.000000
  0.300000  0.500000 -0.400000      1.000000
  0.400000  0.500000 -0.400000      1.000000
  0.500000  0.500000 -0.400000      1.000000
 -0.400000  0.500000 -0.400000      1.000000
 -0.300000  0.500000 -0.400000      1.000000
 -0.200000  0.500000 -0.400000      1.000000
 -0.100000  0.500000 -0.400000      1.000000
  0.000000 -0.400000 -0.400000      1.000000
  0.100000 -0.400000 -0.400000      1.000000
  0.200000 -0.400000 -0.400000      1.000000
  0.300000 -0.400000 -0.400000      1.000000
  0.400000 -0.400000 -0.400000      1.000000
  0.500000 -0.400000 -0.400000      1.000000
 -0.400000 -0.400000 -0.400000      1.000000
 -0.300000 -0.400000 -0.400000      1.000000
 -0.200000 -0.400000 -0.400000      1.000000
 -0.100000 -0.400000 -0.400000      1.000000
  0.000000 -0.300000 -0.400000      1.000000
  0.100000 -0.300000 -0.400000      1.000000
  0.200000 -0.300000 -0.400000      1.000000
  0.300000 -0.300000 -0.400000      1.000000
  0.400000 -0.300000 -0.400000      1.000000
  0.500000 -0.300000 -0.400000      1.000000
 -0.400000 -0.300000 -0.400000      1.000000
 -0.300000 -0.300000 -0.400000      1.000000
 -0.200000 -0.300000 -0.400000      1.000000
 -0.100000 -0.300000 -0.400000      1.000000
  0.000000 -0.200000 -0.400000      1.000000
  0.100000 -0.200000 -0.400000      1.000000
  0.200000 -0.200000 -0.400000      1.000000
  0.300000 -0.200000 -0.400000      1.000000
  0.400000 -0.200000 -0.400000      1.000000
  0.500000 -0.200000 -0.400000      1.000000
 -0.400000 -0.200000 -0.400000      1.000000
 -0.300000 -0.200000 -0.400000      1.000000
 -0.200000 -0.200000 -0.400000      1.000000
 -0.100000 -0.200000 -0.400000      1.000000
  0.000000 -0.100000 -0.400000      1.000000
  0.100000 -0.100000 -0.400000      1.000000
  0.200000 -0.100000 -0.400000      1.000000
  0.300000 -0.100000 -0.400000      1.000000
  0.400000 -0.100000 -0.400000      1.000000
  0.500000 -0.100000 -0.400000      1.000000
 -0.400000 -0.100000 -0.400000      1.000000
 -0.300000 -0.100000 -0.400000      1.000000
 -0.200000 -0.100000 -0.400000      1.000000
 -0.100000 -0.100000 -0.400000      1.000000
  0.000000  0.000000 -0.300000      1.000000
  0.100000  0.000000 -0.300000      1.000000
  0.200000  0.000000 -0.300000      1.000000
  0.300000  0.000000 -0.300000      1.000000
  0.400000  0.000000 -0.300000      1.000000
  0.500000  0.000000 -0.300000      1.000000
 -0.400000  0.000000 -0.300000      1.000000
 -0.300000  0.000000 -0.300000      1.000000
 -0.200000  0.000000 -0.300000      1.000000
 -0.100000  0.000000 -0.300000      1.000000
  0.000000  0.100000 -0.300000      1.000000
  0.100000  0.100000 -0.300000      1.000000
  0.200000  0.100000 -0.300000      1.000000
  0.300000  0.100000 -0.300000      1.000000
  0.400000  0.100000 -0.300000      1.000000
  0.500000  0.100000 -0.300000      1.000000
 -0.400000  0.100000 -0.300000      1.000000
 -0.300000  0.100000 -0.300000      1.000000
 -0.200000  0.100000 -0.300000      1.000000
 -0.100000  0.100000 -0.300000      1.000000
  0.000000  0.200000 -0.300000      1.000000
  0.100000  0.200000 -0.300000      1.000000
  0.200000  0.200000 -0.300000      1.000000
  0.300000  0.200000 -0.300000      1.000000
  0.400000  0.200000 -0.300000      1.000000
  0.500000  0.200000 -0.300000      1.000000
 -0.400000  0.200000 -0.300000      1.000000
 -0.300000  0.200000 -0.300000      1.000000
 -0.200000  0.200000 -0.300000      1.000000
 -0.100000  0.200000 -0.300000      1.000000
  0.000000  0.300000 -0.300000      1.000000
  0.100000  0.300000 -0.300000      1.000000
  0.200000  0.300000 -0.300000      1.000000
  0.300000  0.300000 -0.300000      1.000000
  0.400000  0.300000 -0.300000      1.000000
  0.500000  0.300000 -0.300000      1.000000
 -0.400000  0.300000 -0.300000      1.000000
 -0.300000  0.300000 -0.300000      1.000000
 -0.200000  0.300000 -0.300000      1.000000
 -0.100000  0.300000 -0.300000      1.000000
  0.000000  0.400000 -0.300000      1.000000
  0.100000  0.400000 -0.300000      1.000000
  0.200000  0.400000 -0.300000      1.000000
  0.300000  0.400000 -0.300000      1.000000
  0.400000  0.400000 -0.300000      1.000000
  0.500000  0.400000 -0.300000      1.000000
 -0.400000  0.400000 -0.300000      1.000000
 -0.300000  0.400000 -0.300000      1.000000
 -0.200000  0.400000 -0.300000      1.000000
 -0.100000  0.400000 -0.300000      1.000000
  0.000000  0.500000 -0.300000      1.000000
  0.100000  0.500000 -0.300000      1.000000
  0.200000  0.500000 -0.300000      1.000000
  0.300000  0.500000 -0.300000      1.000000
  0.400000  0.500000 -0.300000      1.000000
  0.500000  0.500000 -0.300000      1.000000
 -0.400000  0.500000 -0.300000      1.000000
 -0.300000  0.500000 -0.300000      1.000000
 -0.200000  0.500000 -0.300000      1.000000
 -0.100000  0.500000 -0.300000      1.000000
  0.000000 -0.400000 -0.300000      1.000000
  0.100000 -0.400000 -0.300000      1.000000
  0.200000 -0.400000 -0.300000      1.000000
  0.300000 -0.400000 -0.300000      1.000000
  0.400000 -0.400000 -0.300000      1.000000
  0.500000 -0.400000 -0.300000      1.000000
 -0.400000 -0.400000 -0.300000      1.000000
 -0.300000 -0.400000 -0.300000      1.000000
 -0.200000 -0.400000 -0.300000      1.000000
 -0.100000 -0.400000 -0.300000      1.000000
  0.000000 -0.300000 -0.300000      1.000000
  0.100000 -0.300000 -0.300000      1.000000
  0.200000 -0.300000 -0.300000      1.000000
  0.300000 -0.300000 -0.300000      1.000000
  0.400000 -0.300000 -0.300000      1.000000
  0.500000 -0.300000 -0.300000      1.000000
 -0.400000 -0.300000 -0.300000      1.000000
 -0.300000 -0.300000 -0.300000      1.000000
 -0.200000 -0.300000 -0.300000      1.000000
 -0.100000 -0.300000 -0.300000      1.000000
  0.000000 -0.200000 -0.300000      1.000000
  0.100000 -0.200000 -0.300000      1.000000
  0.200000 -0.200000 -0.300000      1.000000
  0.300000 -0.200000 -0.300000      1.000000
  0.400000 -0.200000 -0.300000      1.000000
  0.500000 -0.200000 -0.300000      1.000000
 -0.400000 -0.200000 -0.300000      1.000000
 -0.300000 -0.200000 -0.300000      1.000000
 -0.200000 -0.200000 -0.300000      1.000000
 -0.100000 -0.200000 -0.300000      1.000000
  0.000000 -0.100000 -0.300000      1.000000
  0.100000 -0.100000 -0.300000      1.000000
  0.200000 -0.100000 -0.300000      1.000000
  0.300000 -0.100000 -0.300000      1.000000
  0.400000 -0.100000 -0.300000      1.000000
  0.500000 -0.100000 -0.300000      1.000000
 -0.400000 -0.100000 -0.300000      1.000000
 -0.300000 -0.100000 -0.300000      1.000000
 -0.200000 -0.100000 -0.300000      1.000000
 -0.100000 -0.100000 -0.300000      1.000000
  0.000000  0.000000 -0.200000      1.000000
  0.100000  0.000000 -0.200000      1.000000
  0.200000  0.000000 -0.200000      1.000000
  0.300000  0.000000 -0.200000      1.000000
  0.400000  0.000000 -0.200000      1.000000
  0.500000  0.000000 -0.200000      1.000000
 -0.400000  0.000000 -0.200000      1.000000
 -0.300000  0.000000 -0.200000      1.000000
 -0.200000  0.000000 -0.200000      1.000000
 -0.100000  0.000000 -0.200000      1.000000
  0.000000  0.100000 -0.200000      1.000000
  0.100000  0.100000 -0.200000      1.000000
  0.200000  0.100000 -0.200000      1.000000
  0.300000  0.100000 -0.200000      1.000000
  0.400000  0.100000 -0.200000      1.000000
  0.500000  0.100000 -0.200000      1.000000
 -0.400000  0.100000 -0.200000      1.000000
 -0.300000  0.100000 -0.200000      1.000000
 -0.200000  0.100000 -0.200000      1.000000
 -0.100000  0.100000 -0.200000      1.000000
  0.000000  0.200000 -0.200000      1.000000
  0.100000  0.200000 -0.200000      1.000000
  0.200000  0.200000 -0.200000      1.000000
  0.300000  0.200000 -0.200000      1.000000
  0.400000  0.200000 -0.200000      1.000000
  0.500000  0.200000 -0.200000      1.000000
 -0.400000  0.200000 -0.200000      1.000000
 -0.300000  0.200000 -0.200000      1.000000
 -0.200000  0.200000 -0.200000      1.000000
 -0.100000  0.200000 -0.200000      1.000000
  0.000000  0.300000 -0.200000      1.000000
  0.100000  0.300000 -0.200000      1.000000
  0.200000  0.300000 -0.200000      1.000000
  0.300000  0.300000 -0.200000      1.000000
  0.400000  0.300000 -0.200000      1.000000
  0.500000  0.300000 -0.200000      1.000000
 -0.400000  0.300000 -0.200000      1.000000
 -0.300000  0.300000 -0.200000      1.000000
 -0.200000  0.300000 -0.200000      1.000000
 -0.100000  0.300000 -0.200000      1.000000
  0.000000  0.400000 -0.200000      1.000000
  0.100000  0.400000 -0.200000      1.000000
  0.200000  0.400000 -0.200000      1.000000
  0.300000  0.400000 -0.200000      1.000000
  0.400000  0.400000 -0.200000      1.000000
  0.500000  0.400000 -0.200000      1.000000
 -0.400000  0.400000 -0.200000      1.000000
 -0.300000  0.400000 -0.200000      1.000000
 -0.200000  0.400000 -0.200000      1.000000
 -0.100000  0.400000 -0.200000      1.000000
  0.000000  0.500000 -0.200000      1.000000
  0.100000  0.500000 -0.200000      1.000000
  0.200000  0.500000 -0.200000      1.000000
  0.300000  0.500000 -0.200000      1.000000
  0.400000  0.500000 -0.200000      1.000000
  0.500000  0.500000 -0.200000      1.000000
 -0.400000  0.500000 -0.200000      1.000000
 -0.300000  0.500000 -0.200000      1.000000
 -0.200000  0.500000 -0.200000      1.000000
 -0.100000  0.500000 -0.200000      1.000000
  0.000000 -0.400000 -0.200000      1.000000
  0.100000 -0.400000 -0.200000      1.000000
  0.200000 -0.400000 -0.200000      1.000000
  0.300000 -0.400000 -0.200000      1.000000
  0.400000 -0.400000 -0.200000      1.000000
  0.500000 -0.400000 -0.200000      1.000000
 -0.400000 -0.400000 -0.200000      1.000000
 -0.300000 -0.400000 -0.200000      1.000000
 -0.200000 -0.400000 -0.200000      1.000000
 -0.100000 -0.400000 -0.200000      1.000000
  0.000000 -0.300000 -0.200000      1.000000
  0.100000 -0.300000 -0.200000      1.000000
  0.200000 -0.300000 -0.200000      1.000000
  0.300000 -0.300000 -0.200000      1.000000
  0.400000 -0.300000 -0.200000      1.000000
  0.500000 -0.300000 -0.200000      1.000000
 -0.400000 -0.300000 -0.200000      1.000000
 -0.300000 -0.300000 -0.200000      1.000000
 -0.200000 -0.300000 -0.200000      1.000000
 -0.100000 -0.300000 -0.200000      1.000000
  0.000000 -0.200000 -0.200000      1.000000
  0.100000 -0.200000 -0.200000      1.000000
  0.200000 -0.200000 -0.200000      1.000000
  0.300000 -0.200000 -0.200000      1.000000
  0.400000 -0.200000 -0.200000      1.000000
  0.500000 -0.200000 -0.200000      1.000000
 -0.400000 -0.200000 -0.200000      1.000000
 -0.300000 -0.200000 -0.200000      1.000000
 -0.200000 -0.200000 -0.200000      1.000000
 -0.100000 -0.200000 -0.200000      1.000000
  0.000000 -0.100000 -0.200000      1.000000
  0.100000 -0.100000 -0.200000      1.000000
  0.200000 -0.100000 -0.200000      1.000000
  0.300000 -0.100000 -0.200000      1.000000
  0.400000 -0.100000 -0.200000      1.000000
  0.500000 -0.100000 -0.200000      1.000000
 -0.400000 -0.100000 -0.200000      1.000000
 -0.300000 -0.100000 -0.200000      1.000000
 -0.200000 -0.100000 -0.200000      1.000000
 -0.100000 -0.100000 -0.200000      1.000000
  0.000000  0.000000 -0.100000      1.000000
  0.100000  0.000000 -0.100000      1.000000
  0.200000  0.000000 -0.100000      1.000000
  0.300000  0.000000 -0.100000      1.000000
  0.400000  0.000000 -0.100000      1.000000
  0.500000  0.000000 -0.100000      1.000000
 -0.400000  0.000000 -0.100000      1.000000
 -0.300000  0.000000 -0.100000      1.000000
 -0.200000  0.000000 -0.100000      1.000000
 -0.100000  0.000000 -0.100000      1.000000
  0.000000  0.100000 -0.100000      1.000000
  0.100000  0.100000 -0.100000      1.000000
  0.200000  0.100000 -0.100000      1.000000
  0.300000  0.100000 -0.100000      1.000000
  0.400000  0.100000 -0.100000      1.000000
  0.500000  0.100000 -0.100000      1.000000
 -0.400000  0.100000 -0.100000      1.000000
 -0.300000  0.100000 -0.100000      1.000000
 -0.200000  0.100000 -0.100000      1.000000
 -0.100000  0.100000 -0.100000      1.000000
  0.000000  0.200000 -0.100000      1.000000
  0.100000  0.200000 -0.100000      1.000000
  0.200000  0.200000 -0.100000      1.000000
  0.300000  0.200000 -0.100000      1.000000
  0.400000  0.200000 -0.100000      1.000000
  0.500000  0.200000 -0.100000      1.000000
 -0.400000  0.200000 -0.100000      1.000000
 -0.300000  0.200000 -0.100000      1.000000
 -0.200000  0.200000 -0.100000      1.000000
 -0.100000  0.200000 -0.100000      1.000000
  0.000000  0.300000 -0.100000      1.000000
  0.100000  0.300000 -0.100000      1.000000
  0.200000  0.300000 -0.100000      1.000000
  0.300000  0.300000 -0.100000      1.000000
  0.400000  0.300000 -0.100000      1.000000
  0.500000  0.300000 -0.100000      1.000000
 -0.400000  0.300000 -0.100000      1.000000
 -0.300000  0.300000 -0.100000      1.000000
 -0.200000  0.300000 -0.100000      1.000000
 -0.100000  0.300000 -0.100000      1.000000
  0.000000  0.400000 -0.100000      1.000000
  0.100000  0.400000 -0.100000      1.000000
  0.200000  0.400000 -0.100000      1.000000
  0.300000  0.400000 -0.100000      1.000000
  0.400000  0.400000 -0.100000      1.000000
  0.500000  0.400000 -0.100000      1.000000
 -0.400000  0.400000 -0.100000      1.000000
 -0.300000  0.400000 -0.100000      1.000000
 -0.200000  0.400000 -0.100000      1.000000
 -0.100000  0.400000 -0.100000      1.000000
  0.000000  0.500000 -0.100000      1.000000
  0.100000  0.500000 -0.100000      1.000000
  0.200000  0.500000 -0.100000      1.000000
  0.300000  0.500000 -0.100000      1.000000
  0.400000  0.500000 -0.100000      1.000000
  0.500000  0.500000 -0.100000      1.000000
 -0.400000  0.500000 -0.100000      1.000000
 -0.300000  0.500000 -0.100000      1.000000
 -0.200000  0.500000 -0.100000      1.000000
 -0.100000  0.500000 -0.100000      1.000000
  0.000000 -0.400000 -0.100000      1.000000
  0.100000 -0.400000 -0.100000      1.000000
  0.200000 -0.400000 -0.100000      1.000000
  0.300000 -0.400000 -0.100000      1.000000
  0.400000 -0.400000 -0.100000      1.000000
  0.500000 -0.400000 -0.100000      1.000000
 -0.400000 -0.400000 -0.100000      1.000000
 -0.300000 -0.400000 -0.100000      1.000000
 -0.200000 -0.400000 -0.100000      1.000000
 -0.100000 -0.400000 -0.100000      1.000000
  0.000000 -0.300000 -0.100000      1.000000
  0.100000 -0.300000 -0.100000      1.000000
  0.200000 -0.300000 -0.100000      1.000000
  0.300000 -0.300000 -0.100000      1.000000
  0.400000 -0.300000 -0.100000      1.000000
  0.500000 -0.300000 -0.100000      1.000000
 -0.400000 -0.300000 -0.100000      1.000000
 -0.300000 -0.300000 -0.100000      1.000000
 -0.200000 -0.300000 -0.100000      1.000000
 -0.100000 -0.300000 -0.100000      1.000000
  0.000000 -0.200000 -0.100000      1.000000
  0.100000 -0.200000 -0.100000      1.000000
  0.200000 -0.200000 -0.100000      1.000000
  0.300000 -0.200000 -0.100000      1.000000
  0.400000 -0.200000 -0.100000      1.000000
  0.500000 -0.200000 -0.100000      1.000000
 -0.400000 -0.200000 -0.100000      1.000000
 -0.300000 -0.200000 -0.100000      1.000000
 -0.200000 -0.200000 -0.100000      1.000000
 -0.100000 -0.200000 -0.100000      1.000000
  0.000000 -0.100000 -0.100000      1.000000
  0.100000 -0.100000 -0.100000      1.000000
  0.200000 -0.100000 -0.100000      1.000000
  0.300000 -0.100000 -0.100000      1.000000
  0.400000 -0.100000 -0.100000      1.000000
  0.500000 -0.100000 -0.100000      1.000000
 -0.400000 -0.100000 -0.100000      1.000000
 -0.300000 -0.100000 -0.100000      1.000000
 -0.200000 -0.100000 -0.100000      1.000000
 -0.100000 -0.100000 -0.100000      1.000000
 
 Following cartesian coordinates:
            Coordinates               Weight
  0.000000  0.000000  0.000000      1.000000
  0.026802 -0.009476  0.000000      1.000000
  0.053603 -0.018952  0.000000      1.000000
  0.080405 -0.028427  0.000000      1.000000
  0.107206 -0.037903  0.000000      1.000000
  0.134008 -0.047379  0.000000      1.000000
 -0.107206  0.037903 -0.000000      1.000000
 -0.080405  0.028427 -0.000000      1.000000
 -0.053603  0.018952 -0.000000      1.000000
 -0.026802  0.009476 -0.000000      1.000000
  0.000000  0.028427  0.000000      1.000000
  0.026802  0.018952  0.000000      1.000000
  0.053603  0.009476  0.000000      1.000000
  0.080405 -0.000000  0.000000      1.000000
  0.107206 -0.009476  0.000000      1.000000
  0.134008 -0.018952  0.000000      1.000000
 -0.107206  0.066331 -0.000000      1.000000
 -0.080405  0.056855 -0.000000      1.000000
 -0.053603  0.047379 -0.000000      1.000000
 -0.026802  0.037903  0.000000      1.000000
  0.000000  0.056855  0.000000      1.000000
  0.026802  0.047379  0.000000      1.000000
  0.053603  0.037903  0.000000      1.000000
  0.080405  0.028427  0.000000      1.000000
  0.107206  0.018952  0.000000      1.000000
  0.134008  0.009476  0.000000      1.000000
 -0.107206  0.094758 -0.000000      1.000000
 -0.080405  0.085282 -0.000000      1.000000
 -0.053603  0.075806  0.000000      1.000000
 -0.026802  0.066331  0.000000      1.000000
  0.000000  0.085282  0.000000      1.000000
  0.026802  0.075806  0.000000      1.000000
  0.053603  0.066331  0.000000      1.000000
  0.080405  0.056855  0.000000      1.000000
  0.107206  0.047379  0.000000      1.000000
  0.134008  0.037903  0.000000      1.000000
 -0.107206  0.123185 -0.000000      1.000000
 -0.080405  0.113710  0.000000      1.000000
 -0.053603  0.104234  0.000000      1.000000
 -0.026802  0.094758  0.000000      1.000000
  0.000000  0.113710  0.000000      1.000000
  0.026802  0.104234  0.000000      1.000000
  0.053603  0.094758  0.000000      1.000000
  0.080405  0.085282  0.000000      1.000000
  0.107206  0.075806  0.000000      1.000000
  0.134008  0.066331  0.000000      1.000000
 -0.107206  0.151613  0.000000      1.000000
 -0.080405  0.142137  0.000000      1.000000
 -0.053603  0.132661  0.000000      1.000000
 -0.026802  0.123185  0.000000      1.000000
  0.000000  0.142137  0.000000      1.000000
  0.026802  0.132661  0.000000      1.000000
  0.053603  0.123185  0.000000      1.000000
  0.080405  0.113710  0.000000      1.000000
  0.107206  0.104234  0.000000      1.000000
  0.134008  0.094758  0.000000      1.000000
 -0.107206  0.180040  0.000000      1.000000
 -0.080405  0.170564  0.000000      1.000000
 -0.053603  0.161089  0.000000      1.000000
 -0.026802  0.151613  0.000000      1.000000
 -0.000000 -0.113710 -0.000000      1.000000
  0.026802 -0.123185 -0.000000      1.000000
  0.053603 -0.132661 -0.000000      1.000000
  0.080405 -0.142137 -0.000000      1.000000
  0.107206 -0.151613  0.000000      1.000000
  0.134008 -0.161089  0.000000      1.000000
 -0.107206 -0.075806 -0.000000      1.000000
 -0.080405 -0.085282 -0.000000      1.000000
 -0.053603 -0.094758 -0.000000      1.000000
 -0.026802 -0.104234 -0.000000      1.000000
 -0.000000 -0.085282 -0.000000      1.000000
  0.026802 -0.094758 -0.000000      1.000000
  0.053603 -0.104234 -0.000000      1.000000
  0.080405 -0.113710  0.000000      1.000000
  0.107206 -0.123185  0.000000      1.000000
  0.134008 -0.132661  0.000000      1.000000
 -0.107206 -0.047379 -0.000000      1.000000
 -0.080405 -0.056855 -0.000000      1.000000
 -0.053603 -0.066331 -0.000000      1.000000
 -0.026802 -0.075806 -0.000000      1.000000
 -0.000000 -0.056855 -0.000000      1.000000
  0.026802 -0.066331 -0.000000      1.000000
  0.053603 -0.075806  0.000000      1.000000
  0.080405 -0.085282  0.000000      1.000000
  0.107206 -0.094758  0.000000      1.000000
  0.134008 -0.104234  0.000000      1.000000
 -0.107206 -0.018952 -0.000000      1.000000
 -0.080405 -0.028427 -0.000000      1.000000
 -0.053603 -0.037903 -0.000000      1.000000
 -0.026802 -0.047379 -0.000000      1.000000
 -0.000000 -0.028427 -0.000000      1.000000
  0.026802 -0.037903  0.000000      1.000000
  0.053603 -0.047379  0.000000      1.000000
  0.080405 -0.056855  0.000000      1.000000
  0.107206 -0.066331  0.000000      1.000000
  0.134008 -0.075806  0.000000      1.000000
 -0.107206  0.009476 -0.000000      1.000000
 -0.080405  0.000000 -0.000000      1.000000
 -0.053603 -0.009476 -0.000000      1.000000
 -0.026802 -0.018952 -0.000000      1.000000
 -0.013401 -0.009476  0.023211      1.000000
  0.013401 -0.018952  0.023211      1.000000
  0.040202 -0.028427  0.023211      1.000000
  0.067004 -0.037903  0.023211      1.000000
  0.093806 -0.047379  0.023211      1.000000
  0.120607 -0.056855  0.023211      1.000000
 -0.120607  0.028427  0.023211      1.000000
 -0.093806  0.018952  0.023211      1.000000
 -0.067004  0.009476  0.023211      1.000000
 -0.040202  0.000000  0.023211      1.000000
 -0.013401  0.018952  0.023211      1.000000
  0.013401  0.009476  0.023211      1.000000
  0.040202 -0.000000  0.023211      1.000000
  0.067004 -0.009476  0.023211      1.000000
  0.093806 -0.018952  0.023211      1.000000
  0.120607 -0.028427  0.023211      1.000000
 -0.120607  0.056855  0.023211      1.000000
 -0.093806  0.047379  0.023211      1.000000
 -0.067004  0.037903  0.023211      1.000000
 -0.040202  0.028427  0.023211      1.000000
 -0.013401  0.047379  0.023211      1.000000
  0.013401  0.037903  0.023211      1.000000
  0.040202  0.028427  0.023211      1.000000
  0.067004  0.018952  0.023211      1.000000
  0.093806  0.009476  0.023211      1.000000
  0.120607 -0.000000  0.023211      1.000000
 -0.120607  0.085282  0.023211      1.000000
 -0.093806  0.075806  0.023211      1.000000
 -0.067004  0.066331  0.023211      1.000000
 -0.040202  0.056855  0.023211      1.000000
 -0.013401  0.075806  0.023211      1.000000
  0.013401  0.066331  0.023211      1.000000
  0.040202  0.056855  0.023211      1.000000
  0.067004  0.047379  0.023211      1.000000
  0.093806  0.037903  0.023211      1.000000
  0.120607  0.028427  0.023211      1.000000
 -0.120607  0.113710  0.023211      1.000000
 -0.093806  0.104234  0.023211      1.000000
 -0.067004  0.094758  0.023211      1.000000
 -0.040202  0.085282  0.023211      1.000000
 -0.013401  0.104234  0.023211      1.000000
  0.013401  0.094758  0.023211      1.000000
  0.040202  0.085282  0.023211      1.000000
  0.067004  0.075806  0.023211      1.000000
  0.093806  0.066331  0.023211      1.000000
  0.120607  0.056855  0.023211      1.000000
 -0.120607  0.142137  0.023211      1.000000
 -0.093806  0.132661  0.023211      1.000000
 -0.067004  0.123185  0.023211      1.000000
 -0.040202  0.113710  0.023211      1.000000
 -0.013401  0.132661  0.023211      1.000000
  0.013401  0.123185  0.023211      1.000000
  0.040202  0.113710  0.023211      1.000000
  0.067004  0.104234  0.023211      1.000000
  0.093806  0.094758  0.023211      1.000000
  0.120607  0.085282  0.023211      1.000000
 -0.120607  0.170564  0.023211      1.000000
 -0.093806  0.161089  0.023211      1.000000
 -0.067004  0.151613  0.023211      1.000000
 -0.040202  0.142137  0.023211      1.000000
 -0.013401 -0.123185  0.023211      1.000000
  0.013401 -0.132661  0.023211      1.000000
  0.040202 -0.142137  0.023211      1.000000
  0.067004 -0.151613  0.023211      1.000000
  0.093806 -0.161089  0.023211      1.000000
  0.120607 -0.170564  0.023211      1.000000
 -0.120607 -0.085282  0.023211      1.000000
 -0.093806 -0.094758  0.023211      1.000000
 -0.067004 -0.104234  0.023211      1.000000
 -0.040202 -0.113710  0.023211      1.000000
 -0.013401 -0.094758  0.023211      1.000000
  0.013401 -0.104234  0.023211      1.000000
  0.040202 -0.113710  0.023211      1.000000
  0.067004 -0.123185  0.023211      1.000000
  0.093806 -0.132661  0.023211      1.000000
  0.120607 -0.142137  0.023211      1.000000
 -0.120607 -0.056855  0.023211      1.000000
 -0.093806 -0.066331  0.023211      1.000000
 -0.067004 -0.075806  0.023211      1.000000
 -0.040202 -0.085282  0.023211      1.000000
 -0.013401 -0.066331  0.023211      1.000000
  0.013401 -0.075806  0.023211      1.000000
  0.040202 -0.085282  0.023211      1.000000
  0.067004 -0.094758  0.023211      1.000000
  0.093806 -0.104234  0.023211      1.000000
  0.120607 -0.113710  0.023211      1.000000
 -0.120607 -0.028427  0.023211      1.000000
 -0.093806 -0.037903  0.023211      1.000000
 -0.067004 -0.047379  0.023211      1.000000
 -0.040202 -0.056855  0.023211      1.000000
 -0.013401 -0.037903  0.023211      1.000000
  0.013401 -0.047379  0.023211      1.000000
  0.040202 -0.056855  0.023211      1.000000
  0.067004 -0.066331  0.023211      1.000000
  0.093806 -0.075806  0.023211      1.000000
  0.120607 -0.085282  0.023211      1.000000
 -0.120607  0.000000  0.023211      1.000000
 -0.093806 -0.009476  0.023211      1.000000
 -0.067004 -0.018952  0.023211      1.000000
 -0.040202 -0.028427  0.023211      1.000000
 -0.026802 -0.018952  0.046422      1.000000
 -0.000000 -0.028427  0.046422      1.000000
  0.026802 -0.037903  0.046422      1.000000
  0.053603 -0.047379  0.046422      1.000000
  0.080405 -0.056855  0.046422      1.000000
  0.107206 -0.066331  0.046422      1.000000
 -0.134008  0.018952  0.046422      1.000000
 -0.107206  0.009476  0.046422      1.000000
 -0.080405  0.000000  0.046422      1.000000
 -0.053603 -0.009476  0.046422      1.000000
 -0.026802  0.009476  0.046422      1.000000
 -0.000000 -0.000000  0.046422      1.000000
  0.026802 -0.009476  0.046422      1.000000
  0.053603 -0.018952  0.046422      1.000000
  0.080405 -0.028427  0.046422      1.000000
  0.107206 -0.037903  0.046422      1.000000
 -0.134008  0.047379  0.046422      1.000000
 -0.107206  0.037903  0.046422      1.000000
 -0.080405  0.028427  0.046422      1.000000
 -0.053603  0.018952  0.046422      1.000000
 -0.026802  0.037903  0.046422      1.000000
 -0.000000  0.028427  0.046422      1.000000
  0.026802  0.018952  0.046422      1.000000
  0.053603  0.009476  0.046422      1.000000
  0.080405 -0.000000  0.046422      1.000000
  0.107206 -0.009476  0.046422      1.000000
 -0.134008  0.075806  0.046422      1.000000
 -0.107206  0.066331  0.046422      1.000000
 -0.080405  0.056855  0.046422      1.000000
 -0.053603  0.047379  0.046422      1.000000
 -0.026802  0.066331  0.046422      1.000000
 -0.000000  0.056855  0.046422      1.000000
  0.026802  0.047379  0.046422      1.000000
  0.053603  0.037903  0.046422      1.000000
  0.080405  0.028427  0.046422      1.000000
  0.107206  0.018952  0.046422      1.000000
 -0.134008  0.104234  0.046422      1.000000
 -0.107206  0.094758  0.046422      1.000000
 -0.080405  0.085282  0.046422      1.000000
 -0.053603  0.075806  0.046422      1.000000
 -0.026802  0.094758  0.046422      1.000000
 -0.000000  0.085282  0.046422      1.000000
  0.026802  0.075806  0.046422      1.000000
  0.053603  0.066331  0.046422      1.000000
  0.080405  0.056855  0.046422      1.000000
  0.107206  0.047379  0.046422      1.000000
 -0.134008  0.132661  0.046422      1.000000
 -0.107206  0.123185  0.046422      1.000000
 -0.080405  0.113710  0.046422      1.000000
 -0.053603  0.104234  0.046422      1.000000
 -0.026802  0.123185  0.046422      1.000000
 -0.000000  0.113710  0.046422      1.000000
  0.026802  0.104234  0.046422      1.000000
  0.053603  0.094758  0.046422      1.000000
  0.080405  0.085282  0.046422      1.000000
  0.107206  0.075806  0.046422      1.000000
 -0.134008  0.161089  0.046422      1.000000
 -0.107206  0.151613  0.046422      1.000000
 -0.080405  0.142137  0.046422      1.000000
 -0.053603  0.132661  0.046422      1.000000
 -0.026802 -0.132661  0.046422      1.000000
 -0.000000 -0.142137  0.046422      1.000000
  0.026802 -0.151613  0.046422      1.000000
  0.053603 -0.161089  0.046422      1.000000
  0.080405 -0.170564  0.046422      1.000000
  0.107206 -0.180040  0.046422      1.000000
 -0.134008 -0.094758  0.046422      1.000000
 -0.107206 -0.104234  0.046422      1.000000
 -0.080405 -0.113710  0.046422      1.000000
 -0.053603 -0.123185  0.046422      1.000000
 -0.026802 -0.104234  0.046422      1.000000
 -0.000000 -0.113710  0.046422      1.000000
  0.026802 -0.123185  0.046422      1.000000
  0.053603 -0.132661  0.046422      1.000000
  0.080405 -0.142137  0.046422      1.000000
  0.107206 -0.151613  0.046422      1.000000
 -0.134008 -0.066331  0.046422      1.000000
 -0.107206 -0.075806  0.046422      1.000000
 -0.080405 -0.085282  0.046422      1.000000
 -0.053603 -0.094758  0.046422      1.000000
 -0.026802 -0.075806  0.046422      1.000000
 -0.000000 -0.085282  0.046422      1.000000
  0.026802 -0.094758  0.046422      1.000000
  0.053603 -0.104234  0.046422      1.000000
  0.080405 -0.113710  0.046422      1.000000
  0.107206 -0.123185  0.046422      1.000000
 -0.134008 -0.037903  0.046422      1.000000
 -0.107206 -0.047379  0.046422      1.000000
 -0.080405 -0.056855  0.046422      1.000000
 -0.053603 -0.066331  0.046422      1.000000
 -0.026802 -0.047379  0.046422      1.000000
 -0.000000 -0.056855  0.046422      1.000000
  0.026802 -0.066331  0.046422      1.000000
  0.053603 -0.075806  0.046422      1.000000
  0.080405 -0.085282  0.046422      1.000000
  0.107206 -0.094758  0.046422      1.000000
 -0.134008 -0.009476  0.046422      1.000000
 -0.107206 -0.018952  0.046422      1.000000
 -0.080405 -0.028427  0.046422      1.000000
 -0.053603 -0.037903  0.046422      1.000000
 -0.040202 -0.028427  0.069633      1.000000
 -0.013401 -0.037903  0.069633      1.000000
  0.013401 -0.047379  0.069633      1.000000
  0.040202 -0.056855  0.069633      1.000000
  0.067004 -0.066331  0.069633      1.000000
  0.093806 -0.075806  0.069633      1.000000
 -0.147409  0.009476  0.069633      1.000000
 -0.120607  0.000000  0.069633      1.000000
 -0.093806 -0.009476  0.069633      1.000000
 -0.067004 -0.018952  0.069633      1.000000
 -0.040202  0.000000  0.069633      1.000000
 -0.013401 -0.009476  0.069633      1.000000
  0.013401 -0.018952  0.069633      1.000000
  0.040202 -0.028427  0.069633      1.000000
  0.067004 -0.037903  0.069633      1.000000
  0.093806 -0.047379  0.069633      1.000000
 -0.147409  0.037903  0.069633      1.000000
 -0.120607  0.028427  0.069633      1.000000
 -0.093806  0.018952  0.069633      1.000000
 -0.067004  0.009476  0.069633      1.000000
 -0.040202  0.028427  0.069633      1.000000
 -0.013401  0.018952  0.069633      1.000000
  0.013401  0.009476  0.069633      1.000000
  0.040202 -0.000000  0.069633      1.000000
  0.067004 -0.009476  0.069633      1.000000
  0.093806 -0.018952  0.069633      1.000000
 -0.147409  0.066331  0.069633      1.000000
 -0.120607  0.056855  0.069633      1.000000
 -0.093806  0.047379  0.069633      1.000000
 -0.067004  0.037903  0.069633      1.000000
 -0.040202  0.056855  0.069633      1.000000
 -0.013401  0.047379  0.069633      1.000000
  0.013401  0.037903  0.069633      1.000000
  0.040202  0.028427  0.069633      1.000000
  0.067004  0.018952  0.069633      1.000000
  0.093806  0.009476  0.069633      1.000000
 -0.147409  0.094758  0.069633      1.000000
 -0.120607  0.085282  0.069633      1.000000
 -0.093806  0.075806  0.069633      1.000000
 -0.067004  0.066331  0.069633      1.000000
 -0.040202  0.085282  0.069633      1.000000
 -0.013401  0.075806  0.069633      1.000000
  0.013401  0.066331  0.069633      1.000000
  0.040202  0.056855  0.069633      1.000000
  0.067004  0.047379  0.069633      1.000000
  0.093806  0.037903  0.069633      1.000000
 -0.147409  0.123185  0.069633      1.000000
 -0.120607  0.113710  0.069633      1.000000
 -0.093806  0.104234  0.069633      1.000000
 -0.067004  0.094758  0.069633      1.000000
 -0.040202  0.113710  0.069633      1.000000
 -0.013401  0.104234  0.069633      1.000000
  0.013401  0.094758  0.069633      1.000000
  0.040202  0.085282  0.069633      1.000000
  0.067004  0.075806  0.069633      1.000000
  0.093806  0.066331  0.069633      1.000000
 -0.147409  0.151613  0.069633      1.000000
 -0.120607  0.142137  0.069633      1.000000
 -0.093806  0.132661  0.069633      1.000000
 -0.067004  0.123185  0.069633      1.000000
 -0.040202 -0.142137  0.069633      1.000000
 -0.013401 -0.151613  0.069633      1.000000
  0.013401 -0.161089  0.069633      1.000000
  0.040202 -0.170564  0.069633      1.000000
  0.067004 -0.180040  0.069633      1.000000
  0.093806 -0.189516  0.069633      1.000000
 -0.147409 -0.104234  0.069633      1.000000
 -0.120607 -0.113710  0.069633      1.000000
 -0.093806 -0.123185  0.069633      1.000000
 -0.067004 -0.132661  0.069633      1.000000
 -0.040202 -0.113710  0.069633      1.000000
 -0.013401 -0.123185  0.069633      1.000000
  0.013401 -0.132661  0.069633      1.000000
  0.040202 -0.142137  0.069633      1.000000
  0.067004 -0.151613  0.069633      1.000000
  0.093806 -0.161089  0.069633      1.000000
 -0.147409 -0.075806  0.069633      1.000000
 -0.120607 -0.085282  0.069633      1.000000
 -0.093806 -0.094758  0.069633      1.000000
 -0.067004 -0.104234  0.069633      1.000000
 -0.040202 -0.085282  0.069633      1.000000
 -0.013401 -0.094758  0.069633      1.000000
  0.013401 -0.104234  0.069633      1.000000
  0.040202 -0.113710  0.069633      1.000000
  0.067004 -0.123185  0.069633      1.000000
  0.093806 -0.132661  0.069633      1.000000
 -0.147409 -0.047379  0.069633      1.000000
 -0.120607 -0.056855  0.069633      1.000000
 -0.093806 -0.066331  0.069633      1.000000
 -0.067004 -0.075806  0.069633      1.000000
 -0.040202 -0.056855  0.069633      1.000000
 -0.013401 -0.066331  0.069633      1.000000
  0.013401 -0.075806  0.069633      1.000000
  0.040202 -0.085282  0.069633      1.000000
  0.067004 -0.094758  0.069633      1.000000
  0.093806 -0.104234  0.069633      1.000000
 -0.147409 -0.018952  0.069633      1.000000
 -0.120607 -0.028427  0.069633      1.000000
 -0.093806 -0.037903  0.069633      1.000000
 -0.067004 -0.047379  0.069633      1.000000
 -0.053603 -0.037903  0.092844      1.000000
 -0.026802 -0.047379  0.092844      1.000000
 -0.000000 -0.056855  0.092844      1.000000
  0.026802 -0.066331  0.092844      1.000000
  0.053603 -0.075806  0.092844      1.000000
  0.080405 -0.085282  0.092844      1.000000
 -0.160810  0.000000  0.092844      1.000000
 -0.134008 -0.009476  0.092844      1.000000
 -0.107206 -0.018952  0.092844      1.000000
 -0.080405 -0.028427  0.092844      1.000000
 -0.053603 -0.009476  0.092844      1.000000
 -0.026802 -0.018952  0.092844      1.000000
 -0.000000 -0.028427  0.092844      1.000000
  0.026802 -0.037903  0.092844      1.000000
  0.053603 -0.047379  0.092844      1.000000
  0.080405 -0.056855  0.092844      1.000000
 -0.160810  0.028427  0.092844      1.000000
 -0.134008  0.018952  0.092844      1.000000
 -0.107206  0.009476  0.092844      1.000000
 -0.080405  0.000000  0.092844      1.000000
 -0.053603  0.018952  0.092844      1.000000
 -0.026802  0.009476  0.092844      1.000000
 -0.000000 -0.000000  0.092844      1.000000
  0.026802 -0.009476  0.092844      1.000000
  0.053603 -0.018952  0.092844      1.000000
  0.080405 -0.028427  0.092844      1.000000
 -0.160810  0.056855  0.092844      1.000000
 -0.134008  0.047379  0.092844      1.000000
 -0.107206  0.037903  0.092844      1.000000
 -0.080405  0.028427  0.092844      1.000000
 -0.053603  0.047379  0.092844      1.000000
 -0.026802  0.037903  0.092844      1.000000
 -0.000000  0.028427  0.092844      1.000000
  0.026802  0.018952  0.092844      1.000000
  0.053603  0.009476  0.092844      1.000000
  0.080405 -0.000000  0.092844      1.000000
 -0.160810  0.085282  0.092844      1.000000
 -0.134008  0.075806  0.092844      1.000000
 -0.107206  0.066331  0.092844      1.000000
 -0.080405  0.056855  0.092844      1.000000
 -0.053603  0.075806  0.092844      1.000000
 -0.026802  0.066331  0.092844      1.000000
 -0.000000  0.056855  0.092844      1.000000
  0.026802  0.047379  0.092844      1.000000
  0.053603  0.037903  0.092844      1.000000
  0.080405  0.028427  0.092844      1.000000
 -0.160810  0.113710  0.092844      1.000000
 -0.134008  0.104234  0.092844      1.000000
 -0.107206  0.094758  0.092844      1.000000
 -0.080405  0.085282  0.092844      1.000000
 -0.053603  0.104234  0.092844      1.000000
 -0.026802  0.094758  0.092844      1.000000
 -0.000000  0.085282  0.092844      1.000000
  0.026802  0.075806  0.092844      1.000000
  0.053603  0.066331  0.092844      1.000000
  0.080405  0.056855  0.092844      1.000000
 -0.160810  0.142137  0.092844      1.000000
 -0.134008  0.132661  0.092844      1.000000
 -0.107206  0.123185  0.092844      1.000000
 -0.080405  0.113710  0.092844      1.000000
 -0.053603 -0.151613  0.092844      1.000000
 -0.026802 -0.161089  0.092844      1.000000
 -0.000000 -0.170564  0.092844      1.000000
  0.026802 -0.180040  0.092844      1.000000
  0.053603 -0.189516  0.092844      1.000000
  0.080405 -0.198992  0.092844      1.000000
 -0.160810 -0.113710  0.092844      1.000000
 -0.134008 -0.123185  0.092844      1.000000
 -0.107206 -0.132661  0.092844      1.000000
 -0.080405 -0.142137  0.092844      1.000000
 -0.053603 -0.123185  0.092844      1.000000
 -0.026802 -0.132661  0.092844      1.000000
 -0.000000 -0.142137  0.092844      1.000000
  0.026802 -0.151613  0.092844      1.000000
  0.053603 -0.161089  0.092844      1.000000
  0.080405 -0.170564  0.092844      1.000000
 -0.160810 -0.085282  0.092844      1.000000
 -0.134008 -0.094758  0.092844      1.000000
 -0.107206 -0.104234  0.092844      1.000000
 -0.080405 -0.113710  0.092844      1.000000
 -0.053603 -0.094758  0.092844      1.000000
 -0.026802 -0.104234  0.092844      1.000000
 -0.000000 -0.113710  0.092844      1.000000
  0.026802 -0.123185  0.092844      1.000000
  0.053603 -0.132661  0.092844      1.000000
  0.080405 -0.142137  0.092844      1.000000
 -0.160810 -0.056855  0.092844      1.000000
 -0.134008 -0.066331  0.092844      1.000000
 -0.107206 -0.075806  0.092844      1.000000
 -0.080405 -0.085282  0.092844      1.000000
 -0.053603 -0.066331  0.092844      1.000000
 -0.026802 -0.075806  0.092844      1.000000
 -0.000000 -0.085282  0.092844      1.000000
  0.026802 -0.094758  0.092844      1.000000
  0.053603 -0.104234  0.092844      1.000000
  0.080405 -0.113710  0.092844      1.000000
 -0.160810 -0.028427  0.092844      1.000000
 -0.134008 -0.037903  0.092844      1.000000
 -0.107206 -0.047379  0.092844      1.000000
 -0.080405 -0.056855  0.092844      1.000000
 -0.067004 -0.047379  0.116054      1.000000
 -0.040202 -0.056855  0.116054      1.000000
 -0.013401 -0.066331  0.116054      1.000000
  0.013401 -0.075806  0.116054      1.000000
  0.040202 -0.085282  0.116054      1.000000
  0.067004 -0.094758  0.116054      1.000000
 -0.174210 -0.009476  0.116054      1.000000
 -0.147409 -0.018952  0.116054      1.000000
 -0.120607 -0.028427  0.116054      1.000000
 -0.093806 -0.037903  0.116054      1.000000
 -0.067004 -0.018952  0.116054      1.000000
 -0.040202 -0.028427  0.116054      1.000000
 -0.013401 -0.037903  0.116054      1.000000
  0.013401 -0.047379  0.116054      1.000000
  0.040202 -0.056855  0.116054      1.000000
[...]
  199          set_rsgf_all                          0.000000                          1   4
  200          m_sumb_d                              0.381073                          7   4
  201        strkin                                0.001564                            1   3
  202          m_sumb_d                              0.000016                          1   4
  203        strelo                                0.000621                            1   3
  204          m_sumb_d                              0.000039                          2   4
  205        strenl                               25.722612                            1   3
  206          spher                                 8.121287                         19   4
  207          phase                                 0.296017                       9000   4
  208          proj1_acc                             5.414362                      72000   4
  209          m_sumb_d                              0.000020                          1   4
  210        fft3d_mpi                             0.003306                           22   3
  211          fftbrc_mpi                            0.002615                         22   4
  212            fftbas_plan_mpi                       0.002601                       22   5
  213              map_forward                           0.001054                     20   6
  214                map_gather                            0.000176                   10   7
  215                m_alltoallv_z                         0.000146                   10   7
  216                map_scatter                           0.000587                   10   7
  217              map_backward                          0.000900                     24   6
  218                map_gather                            0.000219                   12   7
  219                m_alltoallv_z                         0.000135                   12   7
  220                map_scatter                           0.000395                   12   7
  221        m_sumb_d                              0.000030                            5   3
  222        forhar                                0.000565                            2   3
  223          m_sumb_d                              0.000011                          2   4
  224        strehar                               0.000483                            1   3
  225          m_sumb_d                              0.000003                          1   4
  226        chggra                                0.001048                            1   3
  227          fft3d_mpi                             0.000410                          3   4
  228            fftbrc_mpi                            0.000318                        3   5
  229              fftbas_plan_mpi                       0.000315                      3   6
  230                map_forward                           0.000162                    4   7
  231                  map_gather                            0.000034                  2   8
  232                  m_alltoallv_z                         0.000027                  2   8
  233                  map_scatter                           0.000071                  2   8
  234                map_backward                          0.000070                    2   7
  235                  map_gather                            0.000019                  1   8
  236                  m_alltoallv_z                         0.000011                  1   8
  237                  map_scatter                           0.000029                  1   8
  238          m_sumb_d                              0.000014                          2   4
  239          pothar                                0.000075                          1   4
  240            m_sumb_d                              0.000008                        1   5
  241        brmix                                 0.001552                            1   3
  242          m_sumb_d                              0.000273                          6   4
  243          brpre                                 0.000012                          2   4
  244          setg0                                 0.000317                          1   4
  245          broyd                                 0.000652                          1   4
  246            m_sumb_d                              0.000100                       17   5
  247            brsav                                 0.000069                       16   5
  248            brget                                 0.000211                       59   5
  249        m_bcast_d                             0.000018                            2   3
  250      potlok                                0.011945                              2   2
  251        fft3d_mpi                             0.008010                           36   3
  252          fftbrc_mpi                            0.006433                         36   4
  253            fftbas_plan_mpi                       0.006410                       36   5
  254              map_forward                           0.002332                     40   6
  255                map_gather                            0.000496                   24   7
  256                m_alltoallv_z                         0.000941                   24   7
  257                map_scatter                           0.000714                   24   7
  258              map_backward                          0.001881                     32   6
  259                map_gather                            0.000351                   16   7
  260                m_alltoallv_z                         0.000746                   16   7
  261                map_scatter                           0.000616                   16   7
  262              dfftw_execute                         0.001404                     30   6
  263        m_sumb_d                              0.000028                            5   3
  264        pothar                                0.000854                            2   3
  265          m_sumb_d                              0.000015                          2   4
  266        m_bcast_d                             0.000294                            4   3
  267      potlok_metagga                        0.000000                              1   2
  268      set_dd_magatom                        0.000003                              1   2
  269      set_dd_paw                            0.398803                              1   2
  270        set_rsgf_all                          0.000001                            1   3
  271        m_sumb_d                              0.398781                            7   3
  272      augmentation_charge                   0.002461                              1   2
  273        fft3d_mpi                             0.000967                            2   3
  274          fftbrc_mpi                            0.000888                          2   4
  275            fftbas_plan_mpi                       0.000885                        2   5
  276              dfftw_execute                         0.000335                      6   6
  277              map_backward                          0.000535                      4   6
  278                map_gather                            0.000068                    2   7
  279                m_alltoallv_z                         0.000359                    2   7
  280                map_scatter                           0.000103                    2   7
  281      densta                                0.008010                              1   2
  282        m_sumb_d                              0.000402                           33   3
 
 Flat profile
 ============
 
             routine name                   CPU           calls
 ---------------------------------------------------------------
 lapack                                 90.679639      203123
 eddav                                  76.835576          15
 m_sumb_d                               48.051819      675150
 redis_pw                               28.583216     1162738
 m_alltoall_d                           25.023526     3003722
 orth1                                  12.392633      611369
 strenl                                 11.890926           1
 redis_proj                             10.342341     1450984
 hamiltmu                                9.263279      203123
 eccp                                    8.844687      120000
 spher                                   8.613542          20
 soft_charge                             7.203015          11
 total_time                              7.181062           1
 overl1                                  6.479959      406246
 fft3d                                   6.436115      878492
 w1_copy                                 6.310100     1218738
 ggemm                                   5.742164      263123
 overl                                   5.688438      694492
 proj1_acc                               5.530439       80000
 fftwav                                  5.134841      472246
 vnlac0_acc                              4.905152      406246
 m_bcast_z                               4.731272      235123
 setup_precond                           4.349473      120000
 projmu_acc                              4.068477      143123
 m_bcast_d                               3.035254      406275
 init_acc                                2.536230           1
 fornl                                   2.487944           1
 kinhamil                                1.969288      406246
 vhamil                                  1.963008      406246
 newband                                 1.941412      233123
 fftext_mpi                              1.785642      406246
 pw_charge                               1.612319       66000
 lincom                                  1.588683       32000
 apply_precond                           1.569077      286246
 depsum                                  1.183581          11
 wfinit                                  1.088308           1
 acc_cufft_makeplan                      1.081136          19
 phase                                   0.702773       41001
 fftwav_mpi                              0.680961      472246
 proj                                    0.659194        1000
 sphpro_fast                             0.340222           2
 orthch                                  0.334463           1
 fft3d_mpi                               0.176063      406655
 choleski                                0.167098        2000
 elmin                                   0.161395           1
 w1_projall                              0.117892      143123
 proall                                  0.108391           1
 densta                                  0.097449          16
 m_alltoallv_z                           0.069725         457
 force_and_stress                        0.058821           1
 potlok                                  0.054221          13
 acc_init_cublas                         0.054035           1
 truncate_high_frequency_w1              0.053943      526246
 setdij_                                 0.053091          39
 acc_init_cusolver                       0.027290           1
 augmentation_charge                     0.018958          12
 map_scatter                             0.017050         457
 map_gather                              0.011549         457
 fftbas_plan_mpi                         0.010819         409
 dfftw_execute                           0.008564         216
 broyd                                   0.005398          11
 brmix                                   0.003293          11
 forloc                                  0.002579           1
 setg0                                   0.002494          13
 map_forward                             0.002281         392
 map_backward                            0.002172         426
 pothar                                  0.001708          14
 strkin                                  0.001548           1
 brget                                   0.001347         368
 set_charge                              0.001055          11
 strelo                                  0.000582           1
 forhar                                  0.000554           2
 chggra                                  0.000550           1
 brsav                                   0.000506         112
 set_dd_paw                              0.000493          13
 strehar                                 0.000480           1
 stufak                                  0.000405           1
 fftbrc_mpi                              0.000255         409
 fewald                                  0.000250           1
 brpre                                   0.000168          22
 fft_gq                                  0.000135          11
 brgrid                                  0.000107           1
 rsp                                     0.000094           1
 vectorpot                               0.000069          12
 set_dd_magatom                          0.000049          13
 crpa_reader                             0.000024           1
 acc_cufft_makeplans                     0.000020           3
 fordep                                  0.000014           1
 rcp                                     0.000011           1
 set_rsgf_all                            0.000005          13
 potlok_metagga                          0.000002          12
 rotate_active_occupied_orbital          0.000001           1
 redis_pw_over_bands                     0.000000           1
 ---------------------------------------------------------------
  summed up times     432.1361908912659     
 
 Accumulative profile
 ====================
 
             routine name                   CPU           calls
 ---------------------------------------------------------------
 total_time                            432.136191           1
 elmin                                 384.824007           1
 eddav                                 369.027003          15
 lapack                                 90.679639      203123
 m_sumb_d                               48.051819      675150
 redis_pw                               40.722542     1162738
 force_and_stress                       29.838678           1
 hamiltmu                               29.370421      203123
 strenl                                 25.722612           1
 m_alltoall_d                           25.023526     3003722
 newband                                24.036203      233123
 redis_proj                             23.226541     1450984
 orth1                                  12.392633      611369
 set_charge                             12.179983          11
 soft_charge                            10.957569          11
 fftwav_mpi                              9.402983      472246
 eccp                                    8.844687      120000
 fftwav                                  8.722022      472246
 spher                                   8.613542          20
 kinhamil                                6.759024      406246
 overl1                                  6.479959      406246
 fft3d                                   6.436115      878492
 w1_copy                                 6.310100     1218738
 ggemm                                   5.742164      263123
 overl                                   5.688438      694492
 proj1_acc                               5.530439       80000
 set_dd_paw                              5.075599          13
 vnlac0_acc                              4.905152      406246
 fftext_mpi                              4.789736      406246
 m_bcast_z                               4.731272      235123
 setup_precond                           4.349473      120000
 w1_projall                              4.186369      143123
 projmu_acc                              4.068477      143123
 fft3d_mpi                               3.147412      406655
 m_bcast_d                               3.035254      406275
 init_acc                                2.536230           1
 fornl                                   2.520727           1
 vhamil                                  1.963008      406246
 wfinit                                  1.640674           1
 pw_charge                               1.612319       66000
 lincom                                  1.588683       32000
 orthch                                  1.572060           1
 apply_precond                           1.569077      286246
 depsum                                  1.184032          11
 acc_cufft_makeplans                     1.081157           3
 acc_cufft_makeplan                      1.081136          19
 proall                                  0.896551           1
 proj                                    0.775271        1000
 phase                                   0.702773       41001
 sphpro_fast                             0.345209           2
 choleski                                0.167098        2000
 potlok                                  0.143883          13
 fftbrc_mpi                              0.122415         409
 fftbas_plan_mpi                         0.122160         409
 densta                                  0.103164          16
 m_alltoallv_z                           0.069725         457
 setdij_                                 0.059656          39
 acc_init_cublas                         0.054035           1
 truncate_high_frequency_w1              0.053943      526246
 map_forward                             0.053651         392
 map_backward                            0.049126         426
 augmentation_charge                     0.039788          12
 acc_init_cusolver                       0.027290           1
 map_scatter                             0.017050         457
 brmix                                   0.014798          11
 map_gather                              0.011549         457
 fft_gq                                  0.009463          11
 dfftw_execute                           0.008564         216
 fordep                                  0.008331           1
 broyd                                   0.007929          11
 forloc                                  0.002918           1
 setg0                                   0.002494          13
 pothar                                  0.001806          14
 strkin                                  0.001564           1
 brget                                   0.001347         368
 chggra                                  0.001048           1
 strelo                                  0.000621           1
 forhar                                  0.000565           2
 brsav                                   0.000506         112
 strehar                                 0.000483           1
 stufak                                  0.000405           1
 fewald                                  0.000401           1
 brpre                                   0.000168          22
 brgrid                                  0.000107           1
 rsp                                     0.000094           1
 vectorpot                               0.000069          12
 set_dd_magatom                          0.000049          13
 crpa_reader                             0.000024           1
 rcp                                     0.000011           1
 set_rsgf_all                            0.000005          13
 potlok_metagga                          0.000002          12
 rotate_active_occupied_orbital          0.000001           1
 redis_pw_over_bands                     0.000000           1
 ---------------------------------------------------------------
 
Profiling took   3.288186  1.182551  0.003622  0.003583 seconds
Profiling took   1.820090 seconds
